LAMMPS data file via write_data, version 28 Jun 2016-ICMS, timestep = 1000

3 atoms
2 bonds
3 atom types
1 bond types

0.0000000000000000e+000 3.3919182399172954e+001 xlo xhi
0.0000000000000000e+000 1.6959591199586477e+001 ylo yhi
0.0000000000000000e+000 1.6959591199586477e+001 zlo zhi

Masses

1 1
2 1
3 1

Atoms # bond

1 0 1 1.6959591199586477e+001 8.4797955997932384e+000 4.2398977998966192e-001 0 0 0
2 0 2 8.4797955997932384e+000 5.0878773598759430e+000 1.6959591199586477e+000 0 0 0
3 0 3 1.2210905663702263e+001 1.0684542455739480e+001 1.0514946543743616e+001 0 0 0

Bonds

1 1 1 2
2 1 1 3


Velocities

1 0.0000000000000000e+000 0.0000000000000000e+000 0.0000000000000000e+000
2 0.0000000000000000e+000 0.0000000000000000e+000 0.0000000000000000e+000
3 0.0000000000000000e+000 0.0000000000000000e+000 0.0000000000000000e+000
