ITEM: TIMESTEP
0
ITEM: NUMBER OF ATOMS
3
ITEM: BOX BOUNDS ss ss ss
8.4764036815533217e+00 1.6962983117826393e+01
5.0861814007559847e+00 1.0686238414859439e+01
4.2229382086970330e-01 1.0516642502863574e+01
ITEM: ATOMS id type xs ys zs
2 2 0.00039968 0.000302847 0.126176
1 1 0.9996 0.605996 0.000168011
3 3 0.440048 0.999697 0.999832
ITEM: TIMESTEP
50
ITEM: NUMBER OF ATOMS
3
ITEM: BOX BOUNDS ss ss ss
8.9041337958473470e+00 1.7336489849118450e+01
5.7805976532900605e+00 9.7059962129762472e+00
6.8315339393730790e-01 9.1266525239255785e+00
ITEM: ATOMS id type xs ys zs
2 2 0.00040225 0.000432048 0.253679
1 1 0.999598 0.761298 0.00020086
3 3 0.297133 0.999568 0.999799
ITEM: TIMESTEP
100
ITEM: NUMBER OF ATOMS
3
ITEM: BOX BOUNDS ss ss ss
9.0873573431873602e+00 1.8133970100548378e+01
7.5990357976268070e+00 8.9910488061237341e+00
3.3042402606195365e-01 6.7794708377513357e+00
ITEM: ATOMS id type xs ys zs
2 2 0.000374938 0.00121835 0.999737
1 1 0.999625 0.998782 0.000262978
3 3 0.148299 0.0550246 0.80548
ITEM: TIMESTEP
150
ITEM: NUMBER OF ATOMS
3
ITEM: BOX BOUNDS ss ss ss
7.7527994050538487e+00 1.7628451397103934e+01
5.3238912335503130e+00 9.7548254060836808e+00
1.3456740870009507e+00 8.3032518494022547e+00
ITEM: ATOMS id type xs ys zs
2 2 0.457311 0.999617 0.999756
1 1 0.999657 0.875658 0.000243757
3 3 0.000343463 0.000382754 0.235757
ITEM: TIMESTEP
200
ITEM: NUMBER OF ATOMS
3
ITEM: BOX BOUNDS ss ss ss
7.3927832334731338e+00 1.7577010079295853e+01
4.6356872466132870e+00 1.0419520273539435e+01
1.4901221548055599e+00 9.3663554989287707e+00
ITEM: ATOMS id type xs ys zs
2 2 0.519206 0.999707 0.999785
1 1 0.999667 0.797969 0.000215326
3 3 0.000333056 0.000293224 0.0366032
ITEM: TIMESTEP
250
ITEM: NUMBER OF ATOMS
3
ITEM: BOX BOUNDS ss ss ss
8.9695227559075317e+00 1.7443006252073531e+01
5.9050837161945804e+00 9.7442829199334664e+00
3.1717507867078903e-01 9.3374000376602169e+00
ITEM: ATOMS id type xs ys zs
2 2 0.301003 0.952139 0.920165
1 1 1.00595 0.774694 0.0429463
3 3 -0.0392687 -0.00216566 0.332131
ITEM: TIMESTEP
300
ITEM: NUMBER OF ATOMS
3
ITEM: BOX BOUNDS ss ss ss
9.6111001863569623e+00 1.8096782852900898e+01
7.5011124875577169e+00 9.1339434339506411e+00
6.1671205853094813e-01 6.4501970349815814e+00
ITEM: ATOMS id type xs ys zs
2 2 -0.0569396 -0.19719 0.870121
1 1 1.01767 1.0364 -0.00415597
3 3 0.0783114 0.306274 0.982803
ITEM: TIMESTEP
350
ITEM: NUMBER OF ATOMS
3
ITEM: BOX BOUNDS ss ss ss
8.6275797795902118e+00 1.7333059602884120e+01
5.6645462373305389e+00 9.9285110776701799e+00
6.8458894953717975e-01 9.2166755445214985e+00
ITEM: ATOMS id type xs ys zs
2 2 0.0450201 0.0145616 0.207543
1 1 0.968433 0.692011 -0.0213313
3 3 0.338288 1.03452 1.05395
ITEM: TIMESTEP
400
ITEM: NUMBER OF ATOMS
3
ITEM: BOX BOUNDS ss ss ss
7.8082373072144433e+00 1.7306504194159661e+01
4.9249770108958986e+00 1.0491696494897141e+01
1.1938352732495263e+00 9.5645811573033015e+00
ITEM: ATOMS id type xs ys zs
2 2 0.0414784 0.0326834 0.0808132
1 1 0.988647 0.696673 -0.0537389
3 3 0.467578 1.01194 1.05448
ITEM: TIMESTEP
450
ITEM: NUMBER OF ATOMS
3
ITEM: BOX BOUNDS ss ss ss
7.8289263372184861e+00 1.7982909672935133e+01
5.7834336350999571e+00 9.3938271633092612e+00
1.1079830269625652e+00 7.7541622550001348e+00
ITEM: ATOMS id type xs ys zs
2 2 0.028858 0.0493599 0.414851
1 1 0.988205 0.971791 0.00034463
3 3 0.377809 0.966247 0.985752
ITEM: TIMESTEP
500
ITEM: NUMBER OF ATOMS
3
ITEM: BOX BOUNDS ss ss ss
8.5985363892357416e+00 1.8109516549825035e+01
7.0016378043435203e+00 9.1945485616352673e+00
5.7774825936414009e-01 6.3680887697174136e+00
ITEM: ATOMS id type xs ys zs
2 2 0.228033 0.687818 1.07886
1 1 1.00122 0.976141 -0.0229651
3 3 0.0171725 -0.0292364 0.826838
ITEM: TIMESTEP
550
ITEM: NUMBER OF ATOMS
3
ITEM: BOX BOUNDS ss ss ss
8.3408758708117716e+00 1.7283011521942289e+01
5.4505383232529194e+00 1.0209483001855736e+01
9.5396890554045388e-01 9.3158367167184704e+00
ITEM: ATOMS id type xs ys zs
2 2 0.450879 1.00177 0.958088
1 1 1.00988 0.79102 0.0479258
3 3 -0.0486073 -0.0468176 0.162742
ITEM: TIMESTEP
600
ITEM: NUMBER OF ATOMS
3
ITEM: BOX BOUNDS ss ss ss
8.5148399658083225e+00 1.6950508583334912e+01
5.2970952265947515e+00 1.0691475748666898e+01
6.7463002189079091e-01 1.0189737612407697e+01
ITEM: ATOMS id type xs ys zs
2 2 0.450195 0.98465 0.965686
1 1 1.0383 0.685887 0.0238556
3 3 -0.0534265 -0.0305096 0.125633
ITEM: TIMESTEP
650
ITEM: NUMBER OF ATOMS
3
ITEM: BOX BOUNDS ss ss ss
9.2924692551583146e+00 1.7694416653378401e+01
6.4619337676072979e+00 9.3644461871310636e+00
3.8162277525100624e-01 8.7123411351949418e+00
ITEM: ATOMS id type xs ys zs
2 2 0.144414 0.962297 0.98989
1 1 0.98073 0.842617 -0.00288467
3 3 0.0380246 0.0682179 0.39223
ITEM: TIMESTEP
700
ITEM: NUMBER OF ATOMS
3
ITEM: BOX BOUNDS ss ss ss
9.7959961253991867e+00 1.7865659619879093e+01
7.2752054145473171e+00 9.0587689119109864e+00
2.8139137161025080e-01 7.7603956872924957e+00
ITEM: ATOMS id type xs ys zs
2 2 0.00467971 -0.0855978 0.550803
1 1 1.01203 1.02005 -0.00320305
3 3 0.00715869 0.796968 1.02891
ITEM: TIMESTEP
750
ITEM: NUMBER OF ATOMS
3
ITEM: BOX BOUNDS ss ss ss
7.7503958401708646e+00 1.7482854794472672e+01
5.2760337842944747e+00 1.0363400092847513e+01
1.3206216991311546e+00 8.9857739320284953e+00
ITEM: ATOMS id type xs ys zs
2 2 0.0465106 0.0290403 0.112058
1 1 0.967398 0.753689 -0.0330559
3 3 0.465584 1.02243 1.05249
ITEM: TIMESTEP
800
ITEM: NUMBER OF ATOMS
3
ITEM: BOX BOUNDS ss ss ss
7.4441097620238672e+00 1.7454296814401069e+01
5.0155202478495955e+00 1.0577132545045213e+01
1.6166797960614108e+00 9.0385031926650523e+00
ITEM: ATOMS id type xs ys zs
2 2 0.0150575 0.0166196 0.055064
1 1 1.00628 0.793953 -0.0363922
3 3 0.508897 0.999992 1.03024
ITEM: TIMESTEP
850
ITEM: NUMBER OF ATOMS
3
ITEM: BOX BOUNDS ss ss ss
8.6158897015892482e+00 1.7906258913063745e+01
6.5831199339538662e+00 9.3424116159813426e+00
5.4415395701598523e-01 7.8602281144477866e+00
ITEM: ATOMS id type xs ys zs
2 2 -0.026595 0.00851586 0.546394
1 1 0.999096 1.02344 0.0351953
3 3 0.297914 0.953422 0.922282
ITEM: TIMESTEP
900
ITEM: NUMBER OF ATOMS
3
ITEM: BOX BOUNDS ss ss ss
8.6664307562473191e+00 1.8073944237689922e+01
6.8670651019783335e+00 9.5241490277773480e+00
7.9539358230373025e-01 7.1035850331969730e+00
ITEM: ATOMS id type xs ys zs
2 2 0.274959 0.841375 0.997274
1 1 1.01343 1.02864 0.00569863
3 3 -0.049906 -0.0844073 0.621696
ITEM: TIMESTEP
950
ITEM: NUMBER OF ATOMS
3
ITEM: BOX BOUNDS ss ss ss
8.7708705928095032e+00 1.7006936299634862e+01
5.7905464501384856e+00 1.0738059687818883e+01
4.9193373297328497e-01 1.0072962413032373e+01
ITEM: ATOMS id type xs ys zs
2 2 0.402807 0.998494 0.973859
1 1 0.999546 0.662927 0.0320619
3 3 -0.025764 -0.0244477 0.158786
ITEM: TIMESTEP
1000
ITEM: NUMBER OF ATOMS
3
ITEM: BOX BOUNDS ss ss ss
8.7424532221135340e+00 1.6983012007978772e+01
5.8148194835032951e+00 1.0769816550509500e+01
5.8925775191039664e-01 9.9898853345706673e+00
ITEM: ATOMS id type xs ys zs
2 2 0.370496 0.995368 1.00863
1 1 1.01257 0.639658 -0.0187024
3 3 0.00311681 0.0113439 0.166072
ITEM: TIMESTEP
1050
ITEM: NUMBER OF ATOMS
3
ITEM: BOX BOUNDS ss ss ss
8.4677778798187795e+00 1.8149468515732167e+01
6.9320143759050170e+00 9.6921782332725268e+00
7.9914560314242411e-01 7.0398933257392571e+00
ITEM: ATOMS id type xs ys zs
1 1 0.981719 0.964183 -0.00674385
3 3 0.0612325 0.0960972 0.635386
2 2 0.222009 0.731116 1.01178
ITEM: TIMESTEP
1100
ITEM: NUMBER OF ATOMS
3
ITEM: BOX BOUNDS ss ss ss
8.4844060399141927e+00 1.7897141392659712e+01
6.7741555197267873e+00 9.5637310649568938e+00
6.6388209121108732e-01 7.6638114603612291e+00
ITEM: ATOMS id type xs ys zs
1 1 0.995455 0.952922 -0.0370567
3 3 0.265912 1.03867 1.08487
2 2 0.0344385 0.00270572 0.472662
ITEM: TIMESTEP
1150
ITEM: NUMBER OF ATOMS
3
ITEM: BOX BOUNDS ss ss ss
7.4525991653623720e+00 1.7503138416556084e+01
5.3266203412639079e+00 1.0887683671186082e+01
1.5434783209828349e+00 9.1094947904773722e+00
ITEM: ATOMS id type xs ys zs
1 1 0.985976 0.803664 0.0131543
3 3 0.531227 1.00474 0.993644
2 2 0.00435635 0.000196994 0.0511507
ITEM: TIMESTEP
1200
ITEM: NUMBER OF ATOMS
3
ITEM: BOX BOUNDS ss ss ss
7.9161570625202486e+00 1.7360336968022438e+01
5.7338610793023408e+00 1.0783409633474584e+01
1.2441445512167801e+00 9.0919990163710978e+00
ITEM: ATOMS id type xs ys zs
1 1 1.03176 0.820782 0.0190599
3 3 0.478301 0.980588 0.962724
2 2 -0.0380635 -0.0200958 0.152598
ITEM: TIMESTEP
1250
ITEM: NUMBER OF ATOMS
3
ITEM: BOX BOUNDS ss ss ss
9.7470878557925342e+00 1.7927197515032560e+01
7.7313947161585279e+00 9.5569910905386006e+00
2.5494689549083666e-01 7.8304170544472358e+00
ITEM: ATOMS id type xs ys zs
1 1 0.985393 0.993002 0.0121715
3 3 0.0123123 0.670287 0.952504
2 2 0.0302793 0.0717086 0.602231
ITEM: TIMESTEP
1300
ITEM: NUMBER OF ATOMS
3
ITEM: BOX BOUNDS ss ss ss
9.4319862366615705e+00 1.7602873150403699e+01
7.0907549647894106e+00 9.9232258601722840e+00
3.6394877021931910e-01 8.7409009282241232e+00
ITEM: ATOMS id type xs ys zs
1 1 1.02246 0.902636 0.0132066
3 3 -0.0555242 -0.0816542 0.371501
2 2 0.177897 1.03657 0.993245
ITEM: TIMESTEP
1350
ITEM: NUMBER OF ATOMS
3
ITEM: BOX BOUNDS ss ss ss
8.3548819856817396e+00 1.7071734684059493e+01
5.8906817851572439e+00 1.1331153862766440e+01
7.2601644784593866e-01 1.0110998927082091e+01
ITEM: ATOMS id type xs ys zs
1 1 0.968959 0.629046 -0.0110375
3 3 0.0378304 0.0224007 0.105582
2 2 0.437039 1.01027 1.01967
ITEM: TIMESTEP
1400
ITEM: NUMBER OF ATOMS
3
ITEM: BOX BOUNDS ss ss ss
8.3426413589166817e+00 1.7284728129060980e+01
6.2046308452529759e+00 1.0936436472972192e+01
9.7186184344670623e-01 9.2786740443947444e+00
ITEM: ATOMS id type xs ys zs
1 1 0.997859 0.721177 -0.034918
3 3 0.0297018 0.0303357 0.174782
2 2 0.384008 0.999261 1.03018
ITEM: TIMESTEP
1450
ITEM: NUMBER OF ATOMS
3
ITEM: BOX BOUNDS ss ss ss
8.6270810902518189e+00 1.8118270420347010e+01
7.8662673086694781e+00 1.0019959830201344e+01
5.5254871022234120e-01 6.3499277625342900e+00
ITEM: ATOMS id type xs ys zs
1 1 0.992836 1.00559 0.0165328
3 3 0.00393765 0.0380007 0.917811
2 2 0.243224 0.577717 0.959141
ITEM: TIMESTEP
1500
ITEM: NUMBER OF ATOMS
3
ITEM: BOX BOUNDS ss ss ss
7.8278651870134297e+00 1.7962904930102141e+01
6.6852096058069170e+00 1.0332271200883891e+01
1.1282533087787534e+00 7.7741505176932231e+00
ITEM: ATOMS id type xs ys zs
1 1 1.00282 0.976606 -0.0117032
3 3 0.398124 1.02251 1.02709
2 2 -0.0031512 -0.015575 0.376471
ITEM: TIMESTEP
1550
ITEM: NUMBER OF ATOMS
3
ITEM: BOX BOUNDS ss ss ss
7.8071382887796696e+00 1.7316631309769939e+01
5.9295537246642231e+00 1.1504886361206978e+01
1.1763387874926605e+00 9.5873889273127766e+00
ITEM: ATOMS id type xs ys zs
1 1 1.00332 0.765169 0.0338283
3 3 0.51494 0.992642 0.96591
2 2 -0.0219786 -0.016762 0.0828708
ITEM: TIMESTEP
1600
ITEM: NUMBER OF ATOMS
3
ITEM: BOX BOUNDS ss ss ss
8.8006973097961776e+00 1.7227035178715997e+01
6.8139248439629485e+00 1.1048439493506880e+01
6.1731855035352112e-01 9.3444600898219310e+00
ITEM: ATOMS id type xs ys zs
1 1 1.02349 0.749336 0.014117
3 3 0.34603 0.980862 0.966828
2 2 -0.0346304 -0.0141954 0.254619
ITEM: TIMESTEP
1650
ITEM: NUMBER OF ATOMS
3
ITEM: BOX BOUNDS ss ss ss
9.7097564222477466e+00 1.8166538204781226e+01
8.6210694346843173e+00 1.0340176000286228e+01
5.9619609685507380e-01 6.3702111292185633e+00
ITEM: ATOMS id type xs ys zs
1 1 0.987273 0.981867 0.00666188
3 3 -0.0286177 0.122063 1.00489
2 2 0.0489408 0.0969165 0.866914
ITEM: TIMESTEP
1700
ITEM: NUMBER OF ATOMS
3
ITEM: BOX BOUNDS ss ss ss
8.8947033559793365e+00 1.7426521019985394e+01
7.1614888218133448e+00 1.0990442055334782e+01
4.2121945709311592e-01 9.1852890886232466e+00
ITEM: ATOMS id type xs ys zs
1 1 0.99921 0.723173 -0.0163954
3 3 0.011344 -0.00352781 0.281383
2 2 0.274774 1.02215 1.0325
ITEM: TIMESTEP
1750
ITEM: NUMBER OF ATOMS
3
ITEM: BOX BOUNDS ss ss ss
7.7776501534165989e+00 1.7338361232207379e+01
6.1579428066239643e+00 1.1830260460613287e+01
1.2435179018597471e+00 9.6447947832772360e+00
ITEM: ATOMS id type xs ys zs
1 1 0.975725 0.712005 -0.0239896
3 3 0.0372502 0.0280094 0.0570998
2 2 0.484543 1.00755 1.02677
ITEM: TIMESTEP
1800
ITEM: NUMBER OF ATOMS
3
ITEM: BOX BOUNDS ss ss ss
7.9169789529794521e+00 1.7769420450663166e+01
6.9505189508970338e+00 1.1023971470425371e+01
1.1956216797048260e+00 8.2195273182602833e+00
ITEM: ATOMS id type xs ys zs
1 1 0.999656 0.908616 0.000241455
3 3 0.000344272 0.000416344 0.288177
2 2 0.410752 0.999584 0.999759
ITEM: TIMESTEP
1850
ITEM: NUMBER OF ATOMS
3
ITEM: BOX BOUNDS ss ss ss
9.4597224578963601e+00 1.7941348620983437e+01
8.9787927116016704e+00 1.0469144699419186e+01
4.0392169127012240e-01 6.2055917192837260e+00
ITEM: ATOMS id type xs ys zs
1 1 0.9996 0.998862 0.000292323
3 3 0.0930834 0.299164 0.999708
2 2 0.000399914 0.00113796 0.968938
ITEM: TIMESTEP
1900
ITEM: NUMBER OF ATOMS
3
ITEM: BOX BOUNDS ss ss ss
7.9663484613013402e+00 1.7728895070972161e+01
6.9297959396777351e+00 1.1444997494326245e+01
1.0849469658927142e+00 8.8105614271019803e+00
ITEM: ATOMS id type xs ys zs
1 1 0.999653 0.84628 0.000219524
3 3 0.408572 0.999624 0.99978
2 2 0.000347442 0.000375611 0.21415
ITEM: TIMESTEP
1950
ITEM: NUMBER OF ATOMS
3
ITEM: BOX BOUNDS ss ss ss
8.1789521775309950e+00 1.7044229859164744e+01
6.6790463512494664e+00 1.2295674264780493e+01
8.3845444680187420e-01 1.0054217600448801e+01
ITEM: ATOMS id type xs ys zs
1 1 0.999617 0.664424 0.000184028
3 3 0.479191 0.999698 0.999816
2 2 0.000382607 0.000301953 0.0980677
ITEM: TIMESTEP
2000
ITEM: NUMBER OF ATOMS
3
ITEM: BOX BOUNDS ss ss ss
9.3006971967325907e+00 1.7319271554740514e+01
7.8670263482157070e+00 1.1354847686116571e+01
3.8720102972759246e-01 9.1874721709200866e+00
ITEM: ATOMS id type xs ys zs
1 1 0.999577 0.734933 0.000192717
2 2 0.000423008 0.000486252 0.303743
3 3 0.215702 0.999514 0.999807
ITEM: TIMESTEP
2050
ITEM: NUMBER OF ATOMS
3
ITEM: BOX BOUNDS ss ss ss
9.4305970124530791e+00 1.8025513356295871e+01
9.2771342189892056e+00 1.0894057948493369e+01
4.8326717637369093e-01 7.0244697211636637e+00
ITEM: ATOMS id type xs ys zs
1 1 0.999605 0.998951 0.000259273
2 2 0.000394642 0.295168 0.999741
3 3 0.0888415 0.00104888 0.709945
ITEM: TIMESTEP
2100
ITEM: NUMBER OF ATOMS
3
ITEM: BOX BOUNDS ss ss ss
8.1435708224630119e+00 1.7487686456143951e+01
7.3398499744536663e+00 1.1960643344525931e+01
8.7155515567217712e-01 9.0981469429753474e+00
ITEM: ATOMS id type xs ys zs
1 1 0.999637 0.771593 0.000206156
2 2 0.414749 0.999633 0.999794
3 3 0.000363 0.000367028 0.218029
ITEM: TIMESTEP
2150
ITEM: NUMBER OF ATOMS
3
ITEM: BOX BOUNDS ss ss ss
7.4036359325478251e+00 1.7568801428373991e+01
6.6948023223531790e+00 1.2469684351634559e+01
1.4889010723301614e+00 9.3639195746990698e+00
ITEM: ATOMS id type xs ys zs
1 1 0.995017 0.796089 0.00176864
2 2 0.516994 0.996282 0.993794
3 3 0.00684053 0.00994861 0.041666
ITEM: TIMESTEP
2200
ITEM: NUMBER OF ATOMS
3
ITEM: BOX BOUNDS ss ss ss
8.5456922744261679e+00 1.7541344856364468e+01
8.0496991115312237e+00 1.1638045476777759e+01
7.7772231767218980e-01 8.4218534283992277e+00
ITEM: ATOMS id type xs ys zs
1 1 1.02586 0.909242 0.036049
2 2 0.359856 0.951086 0.914885
3 3 -0.0502644 -0.0106965 0.396731
ITEM: TIMESTEP
2250
ITEM: NUMBER OF ATOMS
3
ITEM: BOX BOUNDS ss ss ss
8.9607956686785322e+00 1.8253695705580679e+01
9.3084319175168151e+00 1.1433857115728538e+01
6.0812793232493834e-01 6.3851646208124837e+00
ITEM: ATOMS id type xs ys zs
1 1 0.985941 0.998569 0.0199998
2 2 -0.0464344 -0.108187 0.856567
3 3 0.219218 0.596988 0.994724
ITEM: TIMESTEP
2300
ITEM: NUMBER OF ATOMS
3
ITEM: BOX BOUNDS ss ss ss
9.0148499200021455e+00 1.7039991555505061e+01
8.0114141921064448e+00 1.2438279031581038e+01
4.9386991935373087e-01 9.7543135712537410e+00
ITEM: ATOMS id type xs ys zs
1 1 1.02253 0.688917 0.0120066
2 2 -0.0425501 -0.0440987 0.193394
3 3 0.341586 1.01764 0.999
ITEM: TIMESTEP
2350
ITEM: NUMBER OF ATOMS
3
ITEM: BOX BOUNDS ss ss ss
8.4298720305484025e+00 1.7117025151509001e+01
7.6233922203203015e+00 1.2989129177393901e+01
5.2681101394948504e-01 1.0229100914316462e+01
ITEM: ATOMS id type xs ys zs
1 1 0.986914 0.626576 -0.0105642
2 2 0.0236088 0.0210556 0.141962
3 3 0.412346 0.999377 1.00797
ITEM: TIMESTEP
2400
ITEM: NUMBER OF ATOMS
3
ITEM: BOX BOUNDS ss ss ss
8.4158920418959315e+00 1.7808119811053071e+01
8.6249504258501979e+00 1.1720182911907292e+01
1.0155947301666435e+00 7.6806712694377799e+00
ITEM: ATOMS id type xs ys zs
1 1 0.994754 0.959983 -0.036527
2 2 0.0557732 0.0845696 0.442417
3 3 0.269991 0.943461 1.03267
ITEM: TIMESTEP
2450
ITEM: NUMBER OF ATOMS
3
ITEM: BOX BOUNDS ss ss ss
8.9379188225416613e+00 1.8056868676549943e+01
9.4670896083188882e+00 1.1673723020407360e+01
3.9569132989837263e-01 7.1807002817355086e+00
ITEM: ATOMS id type xs ys zs
1 1 0.976632 0.950746 -0.0051236
2 2 0.164372 0.838224 1.07284
3 3 0.0473494 0.00304644 0.619508
ITEM: TIMESTEP
2500
ITEM: NUMBER OF ATOMS
3
ITEM: BOX BOUNDS ss ss ss
7.6593258923350387e+00 1.7449039671898088e+01
7.7578131649877395e+00 1.2921491436694472e+01
1.5152571676907505e+00 8.8607539217689926e+00
ITEM: ATOMS id type xs ys zs
1 1 1.01155 0.83293 0.00260305
2 2 0.50665 1.0123 1.00675
3 3 -0.0194561 -0.0216695 0.0918824
ITEM: TIMESTEP
2550
ITEM: NUMBER OF ATOMS
3
ITEM: BOX BOUNDS ss ss ss
7.7642155011957543e+00 1.7466743636891554e+01
7.7833213609948277e+00 1.3293441974281937e+01
1.1068542310641254e+00 9.5818139323199158e+00
ITEM: ATOMS id type xs ys zs
1 1 1.0164 0.791724 0.0352739
2 2 0.496105 0.983378 0.953824
3 3 -0.0327204 -0.0182202 0.109944
ITEM: TIMESTEP
2600
ITEM: NUMBER OF ATOMS
3
ITEM: BOX BOUNDS ss ss ss
9.6682994361747152e+00 1.7517594232355936e+01
9.6051495353553182e+00 1.1997425682967757e+01
3.8016183578840201e-01 8.4359230748508462e+00
ITEM: ATOMS id type xs ys zs
1 1 1.01069 0.929565 0.00777023
2 2 0.114786 0.951727 0.951668
3 3 -0.0240572 0.0259995 0.467418
ITEM: TIMESTEP
2650
ITEM: NUMBER OF ATOMS
3
ITEM: BOX BOUNDS ss ss ss
9.6183284011496415e+00 1.7977670357098248e+01
9.9053767757842408e+00 1.2060400664605806e+01
3.1593068733846258e-01 8.0305478783580551e+00
ITEM: ATOMS id type xs ys zs
1 1 0.995461 1.04172 0.0300013
2 2 -0.0498097 -0.098858 0.507102
3 3 0.106502 0.920904 0.977826
ITEM: TIMESTEP
2700
ITEM: NUMBER OF ATOMS
3
ITEM: BOX BOUNDS ss ss ss
8.4632814959430149e+00 1.7010351820452055e+01
8.5160021410818825e+00 1.3588277953408609e+01
8.6220524299759893e-01 9.7049027231106404e+00
ITEM: ATOMS id type xs ys zs
1 1 0.988123 0.648247 -0.0321322
2 2 0.0282799 0.0137362 0.123343
3 3 0.418059 1.0228 1.04513
ITEM: TIMESTEP
2750
ITEM: NUMBER OF ATOMS
3
ITEM: BOX BOUNDS ss ss ss
7.8286124951133509e+00 1.7485355035207821e+01
8.3415418992225554e+00 1.3688844793215006e+01
1.0854435220703416e+00 9.4849132706267199e+00
ITEM: ATOMS id type xs ys zs
1 1 0.98405 0.716792 -0.0465295
2 2 0.0477944 0.0435275 0.11937
3 3 0.43495 1.00449 1.04373
ITEM: TIMESTEP
2800
ITEM: NUMBER OF ATOMS
3
ITEM: BOX BOUNDS ss ss ss
8.3152246647428409e+00 1.7901307368005053e+01
9.8696881381516306e+00 1.2645061168873047e+01
8.9349192102135988e-01 6.9876871177573996e+00
ITEM: ATOMS id type xs ys zs
1 1 1.0033 1.01533 0.00790849
2 2 0.00555945 0.0422623 0.665226
3 3 0.316455 0.825815 0.960292
ITEM: TIMESTEP
2850
ITEM: NUMBER OF ATOMS
3
ITEM: BOX BOUNDS ss ss ss
8.0362435399447048e+00 1.8201038331097543e+01
9.7961938986086192e+00 1.2895227678564927e+01
8.5603690805967925e-01 7.1864237209330160e+00
ITEM: ATOMS id type xs ys zs
1 1 0.985489 0.980281 0.000267438
2 2 0.340566 0.91969 1.03437
3 3 0.00614669 -0.0190594 0.55559
ITEM: TIMESTEP
2900
ITEM: NUMBER OF ATOMS
3
ITEM: BOX BOUNDS ss ss ss
8.2793463150100521e+00 1.7093085387514176e+01
8.8982315080758312e+00 1.4094234404881982e+01
1.0454949490675662e+00 9.6029238887844866e+00
ITEM: ATOMS id type xs ys zs
1 1 1.02578 0.762172 0.041187
2 2 0.482904 0.996086 0.960695
3 3 -0.0550158 -0.0432817 0.108079
ITEM: TIMESTEP
2950
ITEM: NUMBER OF ATOMS
3
ITEM: BOX BOUNDS ss ss ss
8.6435405109260817e+00 1.7220403611583052e+01
9.3185326709930845e+00 1.4145606650725940e+01
4.3313173525455667e-01 9.9428384759657096e+00
ITEM: ATOMS id type xs ys zs
1 1 1.02552 0.704919 0.0235318
2 2 0.382647 0.978523 0.95784
3 3 -0.0417419 -0.0168028 0.21062
ITEM: TIMESTEP
3000
ITEM: NUMBER OF ATOMS
3
ITEM: BOX BOUNDS ss ss ss
9.4553720971694144e+00 1.7893424132098204e+01
1.0936801184710632e+01 1.3081640045651055e+01
7.0791618591470529e-01 7.1395514028750569e+00
ITEM: ATOMS id type xs ys zs
1 1 0.992895 0.967047 -0.0177648
2 2 0.0448872 0.589072 1.01761
3 3 0.0624925 0.118511 0.634443
