ITEM: TIMESTEP
0
ITEM: NUMBER OF ATOMS
431
ITEM: BOX BOUNDS ss ss pp
-1.6962983117826393e+01 1.6962983117826393e+01
-8.4814915589131967e+00 8.4814915589131967e+00
-4.2398977998966192e-01 4.2398977998966192e-01
ITEM: ATOMS id type xs ys zs
1 2 9.998e-05 9.998e-05 0.5
2 2 0.025095 0.05009 0.5
3 2 0.05009 9.998e-05 0.5
4 2 0.075085 0.05009 0.5
5 2 0.10008 9.998e-05 0.5
6 2 0.125075 0.05009 0.5
7 2 0.15007 9.998e-05 0.5
8 2 0.175065 0.05009 0.5
9 2 0.20006 9.998e-05 0.5
10 2 0.225055 0.05009 0.5
11 2 0.25005 9.998e-05 0.5
12 2 0.275045 0.05009 0.5
13 2 0.30004 9.998e-05 0.5
14 2 0.325035 0.05009 0.5
15 2 0.35003 9.998e-05 0.5
16 2 0.375025 0.05009 0.5
17 2 0.40002 9.998e-05 0.5
18 2 0.425015 0.05009 0.5
19 2 0.45001 9.998e-05 0.5
20 2 0.475005 0.05009 0.5
21 2 0.5 9.998e-05 0.5
22 2 0.524995 0.05009 0.5
23 2 0.54999 9.998e-05 0.5
24 2 0.574985 0.05009 0.5
25 2 0.59998 9.998e-05 0.5
26 2 0.624975 0.05009 0.5
27 2 0.64997 9.998e-05 0.5
28 2 0.674965 0.05009 0.5
29 2 0.69996 9.998e-05 0.5
30 2 0.724955 0.05009 0.5
31 2 0.74995 9.998e-05 0.5
32 2 0.774945 0.05009 0.5
33 2 0.79994 9.998e-05 0.5
34 2 0.824935 0.05009 0.5
35 2 0.84993 9.998e-05 0.5
36 2 0.874925 0.05009 0.5
37 2 0.89992 9.998e-05 0.5
38 2 0.924915 0.05009 0.5
39 2 0.94991 9.998e-05 0.5
40 2 0.974905 0.05009 0.5
41 2 0.9999 9.998e-05 0.5
42 2 9.998e-05 0.10008 0.5
43 1 0.025095 0.15007 0.5
44 2 0.05009 0.10008 0.5
45 1 0.075085 0.15007 0.5
46 2 0.10008 0.10008 0.5
47 1 0.125075 0.15007 0.5
48 2 0.15007 0.10008 0.5
49 1 0.175065 0.15007 0.5
50 2 0.20006 0.10008 0.5
51 1 0.225055 0.15007 0.5
52 2 0.25005 0.10008 0.5
53 1 0.275045 0.15007 0.5
54 2 0.30004 0.10008 0.5
55 1 0.325035 0.15007 0.5
56 2 0.35003 0.10008 0.5
57 1 0.375025 0.15007 0.5
58 2 0.40002 0.10008 0.5
59 1 0.425015 0.15007 0.5
60 2 0.45001 0.10008 0.5
61 1 0.475005 0.15007 0.5
62 2 0.5 0.10008 0.5
63 1 0.524995 0.15007 0.5
64 2 0.54999 0.10008 0.5
65 1 0.574985 0.15007 0.5
66 2 0.59998 0.10008 0.5
67 1 0.624975 0.15007 0.5
68 2 0.64997 0.10008 0.5
69 1 0.674965 0.15007 0.5
70 2 0.69996 0.10008 0.5
71 1 0.724955 0.15007 0.5
72 2 0.74995 0.10008 0.5
73 1 0.774945 0.15007 0.5
74 2 0.79994 0.10008 0.5
75 1 0.824935 0.15007 0.5
76 2 0.84993 0.10008 0.5
77 1 0.874925 0.15007 0.5
78 2 0.89992 0.10008 0.5
79 1 0.924915 0.15007 0.5
80 2 0.94991 0.10008 0.5
81 1 0.974905 0.15007 0.5
82 2 0.9999 0.10008 0.5
83 1 9.998e-05 0.20006 0.5
85 1 0.05009 0.20006 0.5
87 1 0.10008 0.20006 0.5
89 1 0.15007 0.20006 0.5
91 1 0.20006 0.20006 0.5
93 1 0.25005 0.20006 0.5
95 1 0.30004 0.20006 0.5
97 1 0.35003 0.20006 0.5
99 1 0.40002 0.20006 0.5
101 1 0.45001 0.20006 0.5
103 1 0.5 0.20006 0.5
105 1 0.54999 0.20006 0.5
107 1 0.59998 0.20006 0.5
109 1 0.64997 0.20006 0.5
111 1 0.69996 0.20006 0.5
113 1 0.74995 0.20006 0.5
115 1 0.79994 0.20006 0.5
117 1 0.84993 0.20006 0.5
119 1 0.89992 0.20006 0.5
121 1 0.94991 0.20006 0.5
123 1 0.9999 0.20006 0.5
84 1 0.025095 0.25005 0.5
124 1 9.998e-05 0.30004 0.5
86 1 0.075085 0.25005 0.5
126 1 0.05009 0.30004 0.5
128 1 0.10008 0.30004 0.5
88 1 0.125075 0.25005 0.5
130 1 0.15007 0.30004 0.5
90 1 0.175065 0.25005 0.5
132 1 0.20006 0.30004 0.5
92 1 0.225055 0.25005 0.5
94 1 0.275045 0.25005 0.5
134 1 0.25005 0.30004 0.5
96 1 0.325035 0.25005 0.5
136 1 0.30004 0.30004 0.5
138 1 0.35003 0.30004 0.5
98 1 0.375025 0.25005 0.5
140 1 0.40002 0.30004 0.5
100 1 0.425015 0.25005 0.5
142 1 0.45001 0.30004 0.5
102 1 0.475005 0.25005 0.5
104 1 0.524995 0.25005 0.5
144 1 0.5 0.30004 0.5
106 1 0.574985 0.25005 0.5
146 1 0.54999 0.30004 0.5
108 1 0.624975 0.25005 0.5
148 1 0.59998 0.30004 0.5
150 1 0.64997 0.30004 0.5
110 1 0.674965 0.25005 0.5
152 1 0.69996 0.30004 0.5
112 1 0.724955 0.25005 0.5
154 1 0.74995 0.30004 0.5
114 1 0.774945 0.25005 0.5
116 1 0.824935 0.25005 0.5
156 1 0.79994 0.30004 0.5
118 1 0.874925 0.25005 0.5
158 1 0.84993 0.30004 0.5
160 1 0.89992 0.30004 0.5
120 1 0.924915 0.25005 0.5
162 1 0.94991 0.30004 0.5
122 1 0.974905 0.25005 0.5
164 1 0.9999 0.30004 0.5
125 1 0.025095 0.35003 0.5
165 1 9.998e-05 0.40002 0.5
127 1 0.075085 0.35003 0.5
167 1 0.05009 0.40002 0.5
169 1 0.10008 0.40002 0.5
129 1 0.125075 0.35003 0.5
171 1 0.15007 0.40002 0.5
131 1 0.175065 0.35003 0.5
173 1 0.20006 0.40002 0.5
133 1 0.225055 0.35003 0.5
135 1 0.275045 0.35003 0.5
175 1 0.25005 0.40002 0.5
137 1 0.325035 0.35003 0.5
177 1 0.30004 0.40002 0.5
179 1 0.35003 0.40002 0.5
139 1 0.375025 0.35003 0.5
181 1 0.40002 0.40002 0.5
141 1 0.425015 0.35003 0.5
183 1 0.45001 0.40002 0.5
143 1 0.475005 0.35003 0.5
145 1 0.524995 0.35003 0.5
185 1 0.5 0.40002 0.5
147 1 0.574985 0.35003 0.5
187 1 0.54999 0.40002 0.5
149 1 0.624975 0.35003 0.5
189 1 0.59998 0.40002 0.5
191 1 0.64997 0.40002 0.5
151 1 0.674965 0.35003 0.5
193 1 0.69996 0.40002 0.5
153 1 0.724955 0.35003 0.5
195 1 0.74995 0.40002 0.5
155 1 0.774945 0.35003 0.5
157 1 0.824935 0.35003 0.5
197 1 0.79994 0.40002 0.5
159 1 0.874925 0.35003 0.5
199 1 0.84993 0.40002 0.5
201 1 0.89992 0.40002 0.5
161 1 0.924915 0.35003 0.5
203 1 0.94991 0.40002 0.5
163 1 0.974905 0.35003 0.5
205 1 0.9999 0.40002 0.5
166 1 0.025095 0.45001 0.5
168 1 0.075085 0.45001 0.5
170 1 0.125075 0.45001 0.5
172 1 0.175065 0.45001 0.5
174 1 0.225055 0.45001 0.5
176 1 0.275045 0.45001 0.5
178 1 0.325035 0.45001 0.5
180 1 0.375025 0.45001 0.5
182 1 0.425015 0.45001 0.5
184 1 0.475005 0.45001 0.5
186 1 0.524995 0.45001 0.5
188 1 0.574985 0.45001 0.5
190 1 0.624975 0.45001 0.5
192 1 0.674965 0.45001 0.5
194 1 0.724955 0.45001 0.5
196 1 0.774945 0.45001 0.5
198 1 0.824935 0.45001 0.5
200 1 0.874925 0.45001 0.5
202 1 0.924915 0.45001 0.5
204 1 0.974905 0.45001 0.5
206 1 9.998e-05 0.5 0.5
207 1 0.025095 0.54999 0.5
208 1 0.05009 0.5 0.5
209 1 0.075085 0.54999 0.5
210 1 0.10008 0.5 0.5
211 1 0.125075 0.54999 0.5
212 1 0.15007 0.5 0.5
213 1 0.175065 0.54999 0.5
214 1 0.20006 0.5 0.5
215 1 0.225055 0.54999 0.5
216 1 0.25005 0.5 0.5
217 1 0.275045 0.54999 0.5
218 1 0.30004 0.5 0.5
219 1 0.325035 0.54999 0.5
220 1 0.35003 0.5 0.5
221 1 0.375025 0.54999 0.5
222 1 0.40002 0.5 0.5
223 1 0.425015 0.54999 0.5
224 1 0.45001 0.5 0.5
225 1 0.475005 0.54999 0.5
226 1 0.5 0.5 0.5
227 1 0.524995 0.54999 0.5
228 1 0.54999 0.5 0.5
229 1 0.574985 0.54999 0.5
230 1 0.59998 0.5 0.5
231 1 0.624975 0.54999 0.5
232 1 0.64997 0.5 0.5
233 1 0.674965 0.54999 0.5
234 1 0.69996 0.5 0.5
235 1 0.724955 0.54999 0.5
236 1 0.74995 0.5 0.5
237 1 0.774945 0.54999 0.5
238 1 0.79994 0.5 0.5
239 1 0.824935 0.54999 0.5
240 1 0.84993 0.5 0.5
241 1 0.874925 0.54999 0.5
242 1 0.89992 0.5 0.5
243 1 0.924915 0.54999 0.5
244 1 0.94991 0.5 0.5
245 1 0.974905 0.54999 0.5
246 1 0.9999 0.5 0.5
247 1 9.998e-05 0.59998 0.5
248 1 0.025095 0.64997 0.5
249 1 0.05009 0.59998 0.5
250 1 0.075085 0.64997 0.5
251 1 0.10008 0.59998 0.5
252 1 0.125075 0.64997 0.5
253 1 0.15007 0.59998 0.5
254 1 0.175065 0.64997 0.5
255 1 0.20006 0.59998 0.5
256 1 0.225055 0.64997 0.5
257 1 0.25005 0.59998 0.5
258 1 0.275045 0.64997 0.5
259 1 0.30004 0.59998 0.5
260 1 0.325035 0.64997 0.5
261 1 0.35003 0.59998 0.5
262 1 0.375025 0.64997 0.5
263 1 0.40002 0.59998 0.5
264 1 0.425015 0.64997 0.5
265 1 0.45001 0.59998 0.5
266 1 0.475005 0.64997 0.5
267 1 0.5 0.59998 0.5
268 1 0.524995 0.64997 0.5
269 1 0.54999 0.59998 0.5
270 1 0.574985 0.64997 0.5
271 1 0.59998 0.59998 0.5
272 1 0.624975 0.64997 0.5
273 1 0.64997 0.59998 0.5
274 1 0.674965 0.64997 0.5
275 1 0.69996 0.59998 0.5
276 1 0.724955 0.64997 0.5
277 1 0.74995 0.59998 0.5
278 1 0.774945 0.64997 0.5
279 1 0.79994 0.59998 0.5
280 1 0.824935 0.64997 0.5
281 1 0.84993 0.59998 0.5
282 1 0.874925 0.64997 0.5
283 1 0.89992 0.59998 0.5
284 1 0.924915 0.64997 0.5
285 1 0.94991 0.59998 0.5
286 1 0.974905 0.64997 0.5
287 1 0.9999 0.59998 0.5
288 1 9.998e-05 0.69996 0.5
289 1 0.025095 0.74995 0.5
290 1 0.05009 0.69996 0.5
291 1 0.075085 0.74995 0.5
292 1 0.10008 0.69996 0.5
293 1 0.125075 0.74995 0.5
294 1 0.15007 0.69996 0.5
295 1 0.175065 0.74995 0.5
296 1 0.20006 0.69996 0.5
297 1 0.225055 0.74995 0.5
298 1 0.25005 0.69996 0.5
299 1 0.275045 0.74995 0.5
300 1 0.30004 0.69996 0.5
301 1 0.325035 0.74995 0.5
302 1 0.35003 0.69996 0.5
303 1 0.375025 0.74995 0.5
304 1 0.40002 0.69996 0.5
305 1 0.425015 0.74995 0.5
306 1 0.45001 0.69996 0.5
307 1 0.475005 0.74995 0.5
308 1 0.5 0.69996 0.5
309 1 0.524995 0.74995 0.5
310 1 0.54999 0.69996 0.5
311 1 0.574985 0.74995 0.5
312 1 0.59998 0.69996 0.5
313 1 0.624975 0.74995 0.5
314 1 0.64997 0.69996 0.5
315 1 0.674965 0.74995 0.5
316 1 0.69996 0.69996 0.5
317 1 0.724955 0.74995 0.5
318 1 0.74995 0.69996 0.5
319 1 0.774945 0.74995 0.5
320 1 0.79994 0.69996 0.5
321 1 0.824935 0.74995 0.5
322 1 0.84993 0.69996 0.5
323 1 0.874925 0.74995 0.5
324 1 0.89992 0.69996 0.5
325 1 0.924915 0.74995 0.5
326 1 0.94991 0.69996 0.5
327 1 0.974905 0.74995 0.5
328 1 0.9999 0.69996 0.5
329 1 9.998e-05 0.79994 0.5
331 1 0.05009 0.79994 0.5
333 1 0.10008 0.79994 0.5
335 1 0.15007 0.79994 0.5
337 1 0.20006 0.79994 0.5
339 1 0.25005 0.79994 0.5
341 1 0.30004 0.79994 0.5
343 1 0.35003 0.79994 0.5
345 1 0.40002 0.79994 0.5
347 1 0.45001 0.79994 0.5
349 1 0.5 0.79994 0.5
351 1 0.54999 0.79994 0.5
353 1 0.59998 0.79994 0.5
355 1 0.64997 0.79994 0.5
357 1 0.69996 0.79994 0.5
359 1 0.74995 0.79994 0.5
361 1 0.79994 0.79994 0.5
363 1 0.84993 0.79994 0.5
365 1 0.89992 0.79994 0.5
367 1 0.94991 0.79994 0.5
369 1 0.9999 0.79994 0.5
330 1 0.025095 0.84993 0.5
370 3 9.998e-05 0.89992 0.5
332 1 0.075085 0.84993 0.5
372 3 0.05009 0.89992 0.5
374 3 0.10008 0.89992 0.5
334 1 0.125075 0.84993 0.5
376 3 0.15007 0.89992 0.5
336 1 0.175065 0.84993 0.5
378 3 0.20006 0.89992 0.5
338 1 0.225055 0.84993 0.5
340 1 0.275045 0.84993 0.5
380 3 0.25005 0.89992 0.5
342 1 0.325035 0.84993 0.5
382 3 0.30004 0.89992 0.5
384 3 0.35003 0.89992 0.5
344 1 0.375025 0.84993 0.5
386 3 0.40002 0.89992 0.5
346 1 0.425015 0.84993 0.5
388 3 0.45001 0.89992 0.5
348 1 0.475005 0.84993 0.5
350 1 0.524995 0.84993 0.5
390 3 0.5 0.89992 0.5
352 1 0.574985 0.84993 0.5
392 3 0.54999 0.89992 0.5
354 1 0.624975 0.84993 0.5
394 3 0.59998 0.89992 0.5
396 3 0.64997 0.89992 0.5
356 1 0.674965 0.84993 0.5
398 3 0.69996 0.89992 0.5
358 1 0.724955 0.84993 0.5
400 3 0.74995 0.89992 0.5
360 1 0.774945 0.84993 0.5
362 1 0.824935 0.84993 0.5
402 3 0.79994 0.89992 0.5
364 1 0.874925 0.84993 0.5
404 3 0.84993 0.89992 0.5
406 3 0.89992 0.89992 0.5
366 1 0.924915 0.84993 0.5
408 3 0.94991 0.89992 0.5
368 1 0.974905 0.84993 0.5
410 3 0.9999 0.89992 0.5
371 3 0.025095 0.94991 0.5
411 3 9.998e-05 0.9999 0.5
373 3 0.075085 0.94991 0.5
412 3 0.05009 0.9999 0.5
413 3 0.10008 0.9999 0.5
375 3 0.125075 0.94991 0.5
414 3 0.15007 0.9999 0.5
377 3 0.175065 0.94991 0.5
415 3 0.20006 0.9999 0.5
379 3 0.225055 0.94991 0.5
381 3 0.275045 0.94991 0.5
416 3 0.25005 0.9999 0.5
383 3 0.325035 0.94991 0.5
417 3 0.30004 0.9999 0.5
418 3 0.35003 0.9999 0.5
385 3 0.375025 0.94991 0.5
419 3 0.40002 0.9999 0.5
387 3 0.425015 0.94991 0.5
420 3 0.45001 0.9999 0.5
389 3 0.475005 0.94991 0.5
391 3 0.524995 0.94991 0.5
421 3 0.5 0.9999 0.5
393 3 0.574985 0.94991 0.5
422 3 0.54999 0.9999 0.5
395 3 0.624975 0.94991 0.5
423 3 0.59998 0.9999 0.5
424 3 0.64997 0.9999 0.5
397 3 0.674965 0.94991 0.5
425 3 0.69996 0.9999 0.5
399 3 0.724955 0.94991 0.5
426 3 0.74995 0.9999 0.5
401 3 0.774945 0.94991 0.5
403 3 0.824935 0.94991 0.5
427 3 0.79994 0.9999 0.5
405 3 0.874925 0.94991 0.5
428 3 0.84993 0.9999 0.5
429 3 0.89992 0.9999 0.5
407 3 0.924915 0.94991 0.5
430 3 0.94991 0.9999 0.5
409 3 0.974905 0.94991 0.5
431 3 0.9999 0.9999 0.5
ITEM: TIMESTEP
50
ITEM: NUMBER OF ATOMS
431
ITEM: BOX BOUNDS ss ss pp
-1.6962983117826393e+01 1.6962983117826393e+01
-8.4814915589131967e+00 8.4814915589131967e+00
-4.2398977998966192e-01 4.2398977998966192e-01
ITEM: ATOMS id type xs ys zs
1 2 6.68196e-05 9.998e-05 0.5
2 2 0.0250618 0.05009 0.5
3 2 0.0500568 9.998e-05 0.5
4 2 0.0750518 0.05009 0.5
5 2 0.100047 9.998e-05 0.5
6 2 0.125042 0.05009 0.5
7 2 0.150037 9.998e-05 0.5
8 2 0.175032 0.05009 0.5
9 2 0.200027 9.998e-05 0.5
10 2 0.225022 0.05009 0.5
11 2 0.250017 9.998e-05 0.5
12 2 0.275012 0.05009 0.5
13 2 0.300007 9.998e-05 0.5
14 2 0.325002 0.05009 0.5
15 2 0.349997 9.998e-05 0.5
16 2 0.374992 0.05009 0.5
17 2 0.399987 9.998e-05 0.5
18 2 0.424982 0.05009 0.5
19 2 0.449977 9.998e-05 0.5
20 2 0.474972 0.05009 0.5
21 2 0.499967 9.998e-05 0.5
22 2 0.524962 0.05009 0.5
23 2 0.549957 9.998e-05 0.5
24 2 0.574952 0.05009 0.5
25 2 0.599947 9.998e-05 0.5
26 2 0.624942 0.05009 0.5
27 2 0.649937 9.998e-05 0.5
28 2 0.674932 0.05009 0.5
29 2 0.699927 9.998e-05 0.5
30 2 0.724922 0.05009 0.5
31 2 0.749917 9.998e-05 0.5
32 2 0.774912 0.05009 0.5
33 2 0.799907 9.998e-05 0.5
34 2 0.824902 0.05009 0.5
35 2 0.849897 9.998e-05 0.5
36 2 0.874892 0.05009 0.5
37 2 0.899887 9.998e-05 0.5
38 2 0.924882 0.05009 0.5
39 2 0.949877 9.998e-05 0.5
40 2 0.974872 0.05009 0.5
41 2 0.999867 9.998e-05 0.5
42 2 6.68196e-05 0.10008 0.5
43 1 0.0254936 0.150057 0.5
44 2 0.0500568 0.10008 0.5
45 1 0.0750818 0.15007 0.5
46 2 0.100047 0.10008 0.5
47 1 0.125075 0.15007 0.5
48 2 0.150037 0.10008 0.5
49 1 0.175065 0.15007 0.5
50 2 0.200027 0.10008 0.5
51 1 0.225055 0.15007 0.5
52 2 0.250017 0.10008 0.5
53 1 0.275045 0.15007 0.5
54 2 0.300007 0.10008 0.5
55 1 0.325035 0.15007 0.5
56 2 0.349997 0.10008 0.5
57 1 0.375025 0.15007 0.5
58 2 0.399987 0.10008 0.5
59 1 0.425015 0.15007 0.5
60 2 0.449977 0.10008 0.5
61 1 0.475005 0.15007 0.5
62 2 0.499967 0.10008 0.5
63 1 0.524995 0.15007 0.5
64 2 0.549957 0.10008 0.5
65 1 0.574985 0.15007 0.5
66 2 0.599947 0.10008 0.5
67 1 0.624975 0.15007 0.5
68 2 0.649937 0.10008 0.5
69 1 0.674965 0.15007 0.5
70 2 0.699927 0.10008 0.5
71 1 0.724955 0.15007 0.5
72 2 0.749917 0.10008 0.5
73 1 0.774945 0.15007 0.5
74 2 0.799907 0.10008 0.5
75 1 0.824935 0.15007 0.5
76 2 0.849897 0.10008 0.5
77 1 0.874925 0.15007 0.5
78 2 0.899887 0.10008 0.5
79 1 0.924917 0.15007 0.5
80 2 0.949877 0.10008 0.5
81 1 0.974505 0.150057 0.5
82 2 0.999867 0.10008 0.5
83 1 0.00256586 0.200061 0.5
85 1 0.0500774 0.200061 0.5
87 1 0.10008 0.20006 0.5
89 1 0.15007 0.20006 0.5
91 1 0.20006 0.20006 0.5
93 1 0.25005 0.20006 0.5
95 1 0.30004 0.20006 0.5
97 1 0.35003 0.20006 0.5
99 1 0.40002 0.20006 0.5
101 1 0.45001 0.20006 0.5
103 1 0.5 0.20006 0.5
105 1 0.54999 0.20006 0.5
107 1 0.59998 0.20006 0.5
109 1 0.64997 0.20006 0.5
111 1 0.69996 0.20006 0.5
113 1 0.74995 0.20006 0.5
115 1 0.79994 0.20006 0.5
117 1 0.84993 0.20006 0.5
119 1 0.89992 0.20006 0.5
121 1 0.949923 0.200061 0.5
123 1 0.997434 0.20006 0.5
84 1 0.0255177 0.25005 0.5
124 1 0.00256896 0.30004 0.5
86 1 0.0750821 0.25005 0.5
126 1 0.050077 0.30004 0.5
128 1 0.10008 0.30004 0.5
88 1 0.125075 0.25005 0.5
130 1 0.15007 0.30004 0.5
90 1 0.175065 0.25005 0.5
132 1 0.20006 0.30004 0.5
92 1 0.225055 0.25005 0.5
94 1 0.275045 0.25005 0.5
134 1 0.25005 0.30004 0.5
96 1 0.325035 0.25005 0.5
136 1 0.30004 0.30004 0.5
138 1 0.35003 0.30004 0.5
98 1 0.375025 0.25005 0.5
140 1 0.40002 0.30004 0.5
100 1 0.425015 0.25005 0.5
142 1 0.45001 0.30004 0.5
102 1 0.475005 0.25005 0.5
104 1 0.524995 0.25005 0.5
144 1 0.5 0.30004 0.5
106 1 0.574985 0.25005 0.5
146 1 0.54999 0.30004 0.5
108 1 0.624975 0.25005 0.5
148 1 0.59998 0.30004 0.5
150 1 0.64997 0.30004 0.5
110 1 0.674965 0.25005 0.5
152 1 0.69996 0.30004 0.5
112 1 0.724955 0.25005 0.5
154 1 0.74995 0.30004 0.5
114 1 0.774945 0.25005 0.5
116 1 0.824935 0.25005 0.5
156 1 0.79994 0.30004 0.5
118 1 0.874925 0.25005 0.5
158 1 0.84993 0.30004 0.5
160 1 0.89992 0.30004 0.5
120 1 0.924918 0.25005 0.5
162 1 0.949923 0.30004 0.5
122 1 0.974482 0.25005 0.5
164 1 0.997431 0.30004 0.5
125 1 0.0255177 0.35003 0.5
165 1 0.00256896 0.40002 0.5
127 1 0.0750821 0.35003 0.5
167 1 0.050077 0.40002 0.5
169 1 0.10008 0.40002 0.5
129 1 0.125075 0.35003 0.5
171 1 0.15007 0.40002 0.5
131 1 0.175065 0.35003 0.5
173 1 0.20006 0.40002 0.5
133 1 0.225055 0.35003 0.5
135 1 0.275045 0.35003 0.5
175 1 0.25005 0.40002 0.5
137 1 0.325035 0.35003 0.5
177 1 0.30004 0.40002 0.5
179 1 0.35003 0.40002 0.5
139 1 0.375025 0.35003 0.5
181 1 0.40002 0.40002 0.5
141 1 0.425015 0.35003 0.5
183 1 0.45001 0.40002 0.5
143 1 0.475005 0.35003 0.5
145 1 0.524995 0.35003 0.5
185 1 0.5 0.40002 0.5
147 1 0.574985 0.35003 0.5
187 1 0.54999 0.40002 0.5
149 1 0.624975 0.35003 0.5
189 1 0.59998 0.40002 0.5
191 1 0.64997 0.40002 0.5
151 1 0.674965 0.35003 0.5
193 1 0.69996 0.40002 0.5
153 1 0.724955 0.35003 0.5
195 1 0.74995 0.40002 0.5
155 1 0.774945 0.35003 0.5
157 1 0.824935 0.35003 0.5
197 1 0.79994 0.40002 0.5
159 1 0.874925 0.35003 0.5
199 1 0.84993 0.40002 0.5
201 1 0.89992 0.40002 0.5
161 1 0.924918 0.35003 0.5
203 1 0.949923 0.40002 0.5
163 1 0.974482 0.35003 0.5
205 1 0.997431 0.40002 0.5
166 1 0.0255177 0.45001 0.5
168 1 0.0750821 0.45001 0.5
170 1 0.125075 0.45001 0.5
172 1 0.175065 0.45001 0.5
174 1 0.225055 0.45001 0.5
176 1 0.275045 0.45001 0.5
178 1 0.325035 0.45001 0.5
180 1 0.375025 0.45001 0.5
182 1 0.425015 0.45001 0.5
184 1 0.475005 0.45001 0.5
186 1 0.524995 0.45001 0.5
188 1 0.574985 0.45001 0.5
190 1 0.624975 0.45001 0.5
192 1 0.674965 0.45001 0.5
194 1 0.724955 0.45001 0.5
196 1 0.774945 0.45001 0.5
198 1 0.824935 0.45001 0.5
200 1 0.874925 0.45001 0.5
202 1 0.924918 0.45001 0.5
204 1 0.974482 0.45001 0.5
206 1 0.00256896 0.5 0.5
207 1 0.0255177 0.54999 0.5
208 1 0.050077 0.5 0.5
209 1 0.0750821 0.54999 0.5
210 1 0.10008 0.5 0.5
211 1 0.125075 0.54999 0.5
212 1 0.15007 0.5 0.5
213 1 0.175065 0.54999 0.5
214 1 0.20006 0.5 0.5
215 1 0.225055 0.54999 0.5
216 1 0.25005 0.5 0.5
217 1 0.275045 0.54999 0.5
218 1 0.30004 0.5 0.5
219 1 0.325035 0.54999 0.5
220 1 0.35003 0.5 0.5
221 1 0.375025 0.54999 0.5
222 1 0.40002 0.5 0.5
223 1 0.425015 0.54999 0.5
224 1 0.45001 0.5 0.5
225 1 0.475005 0.54999 0.5
226 1 0.5 0.5 0.5
227 1 0.524995 0.54999 0.5
228 1 0.54999 0.5 0.5
229 1 0.574985 0.54999 0.5
230 1 0.59998 0.5 0.5
231 1 0.624975 0.54999 0.5
232 1 0.64997 0.5 0.5
233 1 0.674965 0.54999 0.5
234 1 0.69996 0.5 0.5
235 1 0.724955 0.54999 0.5
236 1 0.74995 0.5 0.5
237 1 0.774945 0.54999 0.5
238 1 0.79994 0.5 0.5
239 1 0.824935 0.54999 0.5
240 1 0.84993 0.5 0.5
241 1 0.874925 0.54999 0.5
242 1 0.89992 0.5 0.5
243 1 0.924918 0.54999 0.5
244 1 0.949923 0.5 0.5
245 1 0.974482 0.54999 0.5
246 1 0.997431 0.5 0.5
247 1 0.00256896 0.59998 0.5
248 1 0.0255177 0.64997 0.5
249 1 0.050077 0.59998 0.5
250 1 0.0750821 0.64997 0.5
251 1 0.10008 0.59998 0.5
252 1 0.125075 0.64997 0.5
253 1 0.15007 0.59998 0.5
254 1 0.175065 0.64997 0.5
255 1 0.20006 0.59998 0.5
256 1 0.225055 0.64997 0.5
257 1 0.25005 0.59998 0.5
258 1 0.275045 0.64997 0.5
259 1 0.30004 0.59998 0.5
260 1 0.325035 0.64997 0.5
261 1 0.35003 0.59998 0.5
262 1 0.375025 0.64997 0.5
263 1 0.40002 0.59998 0.5
264 1 0.425015 0.64997 0.5
265 1 0.45001 0.59998 0.5
266 1 0.475005 0.64997 0.5
267 1 0.5 0.59998 0.5
268 1 0.524995 0.64997 0.5
269 1 0.54999 0.59998 0.5
270 1 0.574985 0.64997 0.5
271 1 0.59998 0.59998 0.5
272 1 0.624975 0.64997 0.5
273 1 0.64997 0.59998 0.5
274 1 0.674965 0.64997 0.5
275 1 0.69996 0.59998 0.5
276 1 0.724955 0.64997 0.5
277 1 0.74995 0.59998 0.5
278 1 0.774945 0.64997 0.5
279 1 0.79994 0.59998 0.5
280 1 0.824935 0.64997 0.5
281 1 0.84993 0.59998 0.5
282 1 0.874925 0.64997 0.5
283 1 0.89992 0.59998 0.5
284 1 0.924918 0.64997 0.5
285 1 0.949923 0.59998 0.5
286 1 0.974482 0.64997 0.5
287 1 0.997431 0.59998 0.5
288 1 0.00256896 0.69996 0.5
289 1 0.0255177 0.74995 0.5
290 1 0.050077 0.69996 0.5
291 1 0.0750821 0.74995 0.5
292 1 0.10008 0.69996 0.5
293 1 0.125075 0.74995 0.5
294 1 0.15007 0.69996 0.5
295 1 0.175065 0.74995 0.5
296 1 0.20006 0.69996 0.5
297 1 0.225055 0.74995 0.5
298 1 0.25005 0.69996 0.5
299 1 0.275045 0.74995 0.5
300 1 0.30004 0.69996 0.5
301 1 0.325035 0.74995 0.5
302 1 0.35003 0.69996 0.5
303 1 0.375025 0.74995 0.5
304 1 0.40002 0.69996 0.5
305 1 0.425015 0.74995 0.5
306 1 0.45001 0.69996 0.5
307 1 0.475005 0.74995 0.5
308 1 0.5 0.69996 0.5
309 1 0.524995 0.74995 0.5
310 1 0.54999 0.69996 0.5
311 1 0.574985 0.74995 0.5
312 1 0.59998 0.69996 0.5
313 1 0.624975 0.74995 0.5
314 1 0.64997 0.69996 0.5
315 1 0.674965 0.74995 0.5
316 1 0.69996 0.69996 0.5
317 1 0.724955 0.74995 0.5
318 1 0.74995 0.69996 0.5
319 1 0.774945 0.74995 0.5
320 1 0.79994 0.69996 0.5
321 1 0.824935 0.74995 0.5
322 1 0.84993 0.69996 0.5
323 1 0.874925 0.74995 0.5
324 1 0.89992 0.69996 0.5
325 1 0.924918 0.74995 0.5
326 1 0.949923 0.69996 0.5
327 1 0.974482 0.74995 0.5
328 1 0.997431 0.69996 0.5
329 1 0.00256594 0.79994 0.5
331 1 0.0500775 0.799939 0.5
333 1 0.10008 0.79994 0.5
335 1 0.15007 0.79994 0.5
337 1 0.20006 0.79994 0.5
339 1 0.25005 0.79994 0.5
341 1 0.30004 0.79994 0.5
343 1 0.35003 0.79994 0.5
345 1 0.40002 0.79994 0.5
347 1 0.45001 0.79994 0.5
349 1 0.5 0.79994 0.5
351 1 0.54999 0.79994 0.5
353 1 0.59998 0.79994 0.5
355 1 0.64997 0.79994 0.5
357 1 0.69996 0.79994 0.5
359 1 0.74995 0.79994 0.5
361 1 0.79994 0.79994 0.5
363 1 0.84993 0.79994 0.5
365 1 0.89992 0.79994 0.5
367 1 0.949923 0.799939 0.5
369 1 0.997434 0.799939 0.5
330 1 0.0254945 0.849943 0.5
370 3 0.00013314 0.89992 0.5
332 1 0.0750827 0.84993 0.5
372 3 0.0501231 0.89992 0.5
374 3 0.100113 0.89992 0.5
334 1 0.125075 0.84993 0.5
376 3 0.150103 0.89992 0.5
336 1 0.175065 0.84993 0.5
378 3 0.200093 0.89992 0.5
338 1 0.225055 0.84993 0.5
340 1 0.275045 0.84993 0.5
380 3 0.250083 0.89992 0.5
342 1 0.325035 0.84993 0.5
382 3 0.300073 0.89992 0.5
384 3 0.350063 0.89992 0.5
344 1 0.375025 0.84993 0.5
386 3 0.400053 0.89992 0.5
346 1 0.425015 0.84993 0.5
388 3 0.450043 0.89992 0.5
348 1 0.475005 0.84993 0.5
350 1 0.524995 0.84993 0.5
390 3 0.500033 0.89992 0.5
352 1 0.574985 0.84993 0.5
392 3 0.550023 0.89992 0.5
354 1 0.624975 0.84993 0.5
394 3 0.600013 0.89992 0.5
396 3 0.650003 0.89992 0.5
356 1 0.674965 0.84993 0.5
398 3 0.699993 0.89992 0.5
358 1 0.724955 0.84993 0.5
400 3 0.749983 0.89992 0.5
360 1 0.774945 0.84993 0.5
362 1 0.824935 0.84993 0.5
402 3 0.799973 0.89992 0.5
364 1 0.874925 0.84993 0.5
404 3 0.849963 0.89992 0.5
406 3 0.899953 0.89992 0.5
366 1 0.924918 0.84993 0.5
408 3 0.949943 0.89992 0.5
368 1 0.974506 0.849943 0.5
410 3 0.999933 0.89992 0.5
371 3 0.0251281 0.94991 0.5
411 3 0.00013314 0.9999 0.5
373 3 0.0751181 0.94991 0.5
412 3 0.0501231 0.9999 0.5
413 3 0.100113 0.9999 0.5
375 3 0.125108 0.94991 0.5
414 3 0.150103 0.9999 0.5
377 3 0.175098 0.94991 0.5
415 3 0.200093 0.9999 0.5
379 3 0.225088 0.94991 0.5
381 3 0.275078 0.94991 0.5
416 3 0.250083 0.9999 0.5
383 3 0.325068 0.94991 0.5
417 3 0.300073 0.9999 0.5
418 3 0.350063 0.9999 0.5
385 3 0.375058 0.94991 0.5
419 3 0.400053 0.9999 0.5
387 3 0.425048 0.94991 0.5
420 3 0.450043 0.9999 0.5
389 3 0.475038 0.94991 0.5
391 3 0.525028 0.94991 0.5
421 3 0.500033 0.9999 0.5
393 3 0.575018 0.94991 0.5
422 3 0.550023 0.9999 0.5
395 3 0.625008 0.94991 0.5
423 3 0.600013 0.9999 0.5
424 3 0.650003 0.9999 0.5
397 3 0.674998 0.94991 0.5
425 3 0.699993 0.9999 0.5
399 3 0.724988 0.94991 0.5
426 3 0.749983 0.9999 0.5
401 3 0.774978 0.94991 0.5
403 3 0.824968 0.94991 0.5
427 3 0.799973 0.9999 0.5
405 3 0.874958 0.94991 0.5
428 3 0.849963 0.9999 0.5
429 3 0.899953 0.9999 0.5
407 3 0.924948 0.94991 0.5
430 3 0.949943 0.9999 0.5
409 3 0.974938 0.94991 0.5
431 3 0.999933 0.9999 0.5
ITEM: TIMESTEP
100
ITEM: NUMBER OF ATOMS
431
ITEM: BOX BOUNDS ss ss pp
-1.6967483117826394e+01 1.6967483117826394e+01
-8.4814915589131967e+00 8.4814915589131967e+00
-4.2398977998966192e-01 4.2398977998966192e-01
ITEM: ATOMS id type xs ys zs
1 2 9.99535e-05 9.998e-05 0.5
2 2 0.0250883 0.05009 0.5
3 2 0.0500767 9.998e-05 0.5
4 2 0.0750651 0.05009 0.5
5 2 0.100053 9.998e-05 0.5
6 2 0.125042 0.05009 0.5
7 2 0.15003 9.998e-05 0.5
8 2 0.175019 0.05009 0.5
9 2 0.200007 9.998e-05 0.5
10 2 0.224995 0.05009 0.5
11 2 0.249984 9.998e-05 0.5
12 2 0.274972 0.05009 0.5
13 2 0.29996 9.998e-05 0.5
14 2 0.324949 0.05009 0.5
15 2 0.349937 9.998e-05 0.5
16 2 0.374926 0.05009 0.5
17 2 0.399914 9.998e-05 0.5
18 2 0.424902 0.05009 0.5
19 2 0.449891 9.998e-05 0.5
20 2 0.474879 0.05009 0.5
21 2 0.499867 9.998e-05 0.5
22 2 0.524856 0.05009 0.5
23 2 0.549844 9.998e-05 0.5
24 2 0.574833 0.05009 0.5
25 2 0.599821 9.998e-05 0.5
26 2 0.624809 0.05009 0.5
27 2 0.649798 9.998e-05 0.5
28 2 0.674786 0.05009 0.5
29 2 0.699774 9.998e-05 0.5
30 2 0.724763 0.05009 0.5
31 2 0.749751 9.998e-05 0.5
32 2 0.774739 0.05009 0.5
33 2 0.799728 9.998e-05 0.5
34 2 0.824716 0.05009 0.5
35 2 0.849705 9.998e-05 0.5
36 2 0.874693 0.05009 0.5
37 2 0.899681 9.998e-05 0.5
38 2 0.92467 0.05009 0.5
39 2 0.949658 9.998e-05 0.5
40 2 0.974646 0.05009 0.5
41 2 0.999635 9.998e-05 0.5
42 2 9.99535e-05 0.10008 0.5
43 1 0.0273055 0.149026 0.5
44 2 0.0500767 0.10008 0.5
45 1 0.0751363 0.150075 0.5
46 2 0.100053 0.10008 0.5
47 1 0.125167 0.15007 0.5
48 2 0.15003 0.10008 0.5
49 1 0.175144 0.15007 0.5
50 2 0.200007 0.10008 0.5
51 1 0.22512 0.15007 0.5
52 2 0.249984 0.10008 0.5
53 1 0.275097 0.15007 0.5
54 2 0.29996 0.10008 0.5
55 1 0.325074 0.15007 0.5
56 2 0.349937 0.10008 0.5
57 1 0.375051 0.15007 0.5
58 2 0.399914 0.10008 0.5
59 1 0.425027 0.15007 0.5
60 2 0.449891 0.10008 0.5
61 1 0.475004 0.15007 0.5
62 2 0.499867 0.10008 0.5
63 1 0.524981 0.15007 0.5
64 2 0.549844 0.10008 0.5
65 1 0.574958 0.15007 0.5
66 2 0.599821 0.10008 0.5
67 1 0.624934 0.15007 0.5
68 2 0.649798 0.10008 0.5
69 1 0.674911 0.15007 0.5
70 2 0.699774 0.10008 0.5
71 1 0.724888 0.15007 0.5
72 2 0.749751 0.10008 0.5
73 1 0.774865 0.15007 0.5
74 2 0.799728 0.10008 0.5
75 1 0.824841 0.15007 0.5
76 2 0.849705 0.10008 0.5
77 1 0.874818 0.15007 0.5
78 2 0.899681 0.10008 0.5
79 1 0.924849 0.150076 0.5
80 2 0.949658 0.10008 0.5
81 1 0.972679 0.14901 0.5
82 2 0.999635 0.10008 0.5
83 1 0.00920207 0.200106 0.5
85 1 0.0499877 0.200089 0.5
87 1 0.100187 0.20006 0.5
89 1 0.150162 0.20006 0.5
91 1 0.200139 0.20006 0.5
93 1 0.250116 0.20006 0.5
95 1 0.300092 0.20006 0.5
97 1 0.350069 0.20006 0.5
99 1 0.400046 0.20006 0.5
101 1 0.450023 0.20006 0.5
103 1 0.499999 0.20006 0.5
105 1 0.549976 0.20006 0.5
107 1 0.599953 0.20006 0.5
109 1 0.64993 0.20006 0.5
111 1 0.699906 0.20006 0.5
113 1 0.749883 0.20006 0.5
115 1 0.79986 0.20006 0.5
117 1 0.849837 0.20006 0.5
119 1 0.899812 0.20006 0.5
121 1 0.950011 0.20009 0.5
123 1 0.990795 0.200101 0.5
84 1 0.0279931 0.250049 0.5
124 1 0.00925412 0.30004 0.5
86 1 0.0751312 0.250052 0.5
126 1 0.0499776 0.30004 0.5
128 1 0.100188 0.30004 0.5
88 1 0.125175 0.25005 0.5
130 1 0.150163 0.30004 0.5
90 1 0.175151 0.25005 0.5
132 1 0.20014 0.30004 0.5
92 1 0.225128 0.25005 0.5
94 1 0.275105 0.25005 0.5
134 1 0.250116 0.30004 0.5
96 1 0.325081 0.25005 0.5
136 1 0.300093 0.30004 0.5
138 1 0.35007 0.30004 0.5
98 1 0.375058 0.25005 0.5
140 1 0.400047 0.30004 0.5
100 1 0.425035 0.25005 0.5
142 1 0.450023 0.30004 0.5
102 1 0.475012 0.25005 0.5
104 1 0.524988 0.25005 0.5
144 1 0.5 0.30004 0.5
106 1 0.574965 0.25005 0.5
146 1 0.549977 0.30004 0.5
108 1 0.624942 0.25005 0.5
148 1 0.599953 0.30004 0.5
150 1 0.64993 0.30004 0.5
110 1 0.674919 0.25005 0.5
152 1 0.699907 0.30004 0.5
112 1 0.724895 0.25005 0.5
154 1 0.749884 0.30004 0.5
114 1 0.774872 0.25005 0.5
116 1 0.824849 0.25005 0.5
156 1 0.79986 0.30004 0.5
118 1 0.874825 0.25005 0.5
158 1 0.849837 0.30004 0.5
160 1 0.899812 0.30004 0.5
120 1 0.924869 0.250052 0.5
162 1 0.950022 0.30004 0.5
122 1 0.972007 0.250049 0.5
164 1 0.990746 0.30004 0.5
125 1 0.0279968 0.35003 0.5
165 1 0.00925435 0.40002 0.5
127 1 0.0751301 0.35003 0.5
167 1 0.0499776 0.40002 0.5
169 1 0.100188 0.40002 0.5
129 1 0.125175 0.35003 0.5
171 1 0.150163 0.40002 0.5
131 1 0.175151 0.35003 0.5
173 1 0.20014 0.40002 0.5
133 1 0.225128 0.35003 0.5
135 1 0.275105 0.35003 0.5
175 1 0.250116 0.40002 0.5
137 1 0.325081 0.35003 0.5
177 1 0.300093 0.40002 0.5
179 1 0.35007 0.40002 0.5
139 1 0.375058 0.35003 0.5
181 1 0.400047 0.40002 0.5
141 1 0.425035 0.35003 0.5
183 1 0.450023 0.40002 0.5
143 1 0.475012 0.35003 0.5
145 1 0.524988 0.35003 0.5
185 1 0.5 0.40002 0.5
147 1 0.574965 0.35003 0.5
187 1 0.549977 0.40002 0.5
149 1 0.624942 0.35003 0.5
189 1 0.599953 0.40002 0.5
191 1 0.64993 0.40002 0.5
151 1 0.674919 0.35003 0.5
193 1 0.699907 0.40002 0.5
153 1 0.724895 0.35003 0.5
195 1 0.749884 0.40002 0.5
155 1 0.774872 0.35003 0.5
157 1 0.824849 0.35003 0.5
197 1 0.79986 0.40002 0.5
159 1 0.874825 0.35003 0.5
199 1 0.849837 0.40002 0.5
201 1 0.899812 0.40002 0.5
161 1 0.92487 0.35003 0.5
203 1 0.950022 0.40002 0.5
163 1 0.972003 0.35003 0.5
205 1 0.990746 0.40002 0.5
166 1 0.0279968 0.45001 0.5
168 1 0.0751301 0.45001 0.5
170 1 0.125175 0.45001 0.5
172 1 0.175151 0.45001 0.5
174 1 0.225128 0.45001 0.5
176 1 0.275105 0.45001 0.5
178 1 0.325081 0.45001 0.5
180 1 0.375058 0.45001 0.5
182 1 0.425035 0.45001 0.5
184 1 0.475012 0.45001 0.5
186 1 0.524988 0.45001 0.5
188 1 0.574965 0.45001 0.5
190 1 0.624942 0.45001 0.5
192 1 0.674919 0.45001 0.5
194 1 0.724895 0.45001 0.5
196 1 0.774872 0.45001 0.5
198 1 0.824849 0.45001 0.5
200 1 0.874825 0.45001 0.5
202 1 0.92487 0.45001 0.5
204 1 0.972003 0.45001 0.5
206 1 0.00925435 0.5 0.5
207 1 0.0279968 0.54999 0.5
208 1 0.0499776 0.5 0.5
209 1 0.0751301 0.54999 0.5
210 1 0.100188 0.5 0.5
211 1 0.125175 0.54999 0.5
212 1 0.150163 0.5 0.5
213 1 0.175151 0.54999 0.5
214 1 0.20014 0.5 0.5
215 1 0.225128 0.54999 0.5
216 1 0.250116 0.5 0.5
217 1 0.275105 0.54999 0.5
218 1 0.300093 0.5 0.5
219 1 0.325081 0.54999 0.5
220 1 0.35007 0.5 0.5
221 1 0.375058 0.54999 0.5
222 1 0.400047 0.5 0.5
223 1 0.425035 0.54999 0.5
224 1 0.450023 0.5 0.5
225 1 0.475012 0.54999 0.5
226 1 0.5 0.5 0.5
227 1 0.524988 0.54999 0.5
228 1 0.549977 0.5 0.5
229 1 0.574965 0.54999 0.5
230 1 0.599953 0.5 0.5
231 1 0.624942 0.54999 0.5
232 1 0.64993 0.5 0.5
233 1 0.674919 0.54999 0.5
234 1 0.699907 0.5 0.5
235 1 0.724895 0.54999 0.5
236 1 0.749884 0.5 0.5
237 1 0.774872 0.54999 0.5
238 1 0.79986 0.5 0.5
239 1 0.824849 0.54999 0.5
240 1 0.849837 0.5 0.5
241 1 0.874825 0.54999 0.5
242 1 0.899812 0.5 0.5
243 1 0.92487 0.54999 0.5
244 1 0.950022 0.5 0.5
245 1 0.972003 0.54999 0.5
246 1 0.990746 0.5 0.5
247 1 0.00925435 0.59998 0.5
248 1 0.0279968 0.64997 0.5
249 1 0.0499776 0.59998 0.5
250 1 0.0751301 0.64997 0.5
251 1 0.100188 0.59998 0.5
252 1 0.125175 0.64997 0.5
253 1 0.150163 0.59998 0.5