AMMPS data file via write_data, version 14 May 2016-ICMS, timestep = 1000

10000 atoms
1 atom types

-50 50 xlo xhi
-50 50 ylo yhi
-50 50 zlo zhi

Masses

1 10.0

Atoms

1  0 1 0.0 -0.0 30.0
2  0 1 0.0 -0.0 30.0
3  0 1 0.0 -0.0 30.0
4  0 1 0.0 -0.0 30.0
5  0 1 0.0 -0.0 30.0
6  0 1 0.0 -0.0 30.0
7  0 1 0.0 -0.0 30.0
8  0 1 0.0 -0.0 30.0
9  0 1 0.0 -0.0 30.0
10  0 1 0.0 -0.0 30.0
11  0 1 0.0 -0.0 30.0
12  0 1 0.0 -0.0 30.0
13  0 1 0.0 -0.0 30.0
14  0 1 -0.0 -0.0 30.0
15  0 1 -0.0 -0.0 30.0
16  0 1 -0.0 -0.0 30.0
17  0 1 -0.0 -0.0 30.0
18  0 1 -0.0 -0.0 30.0
19  0 1 -0.0 -0.0 30.0
20  0 1 -0.0 -0.0 30.0
21  0 1 -0.0 -0.0 30.0
22  0 1 -0.0 -0.0 30.0
23  0 1 -0.0 -0.0 30.0
24  0 1 -0.0 -0.0 30.0
25  0 1 -0.0 -0.0 30.0
26  0 1 -0.0 0.0 30.0
27  0 1 -0.0 0.0 30.0
28  0 1 -0.0 0.0 30.0
29  0 1 -0.0 0.0 30.0
30  0 1 -0.0 0.0 30.0
31  0 1 -0.0 0.0 30.0
32  0 1 -0.0 0.0 30.0
33  0 1 -0.0 0.0 30.0
34  0 1 -0.0 0.0 30.0
35  0 1 -0.0 0.0 30.0
36  0 1 -0.0 0.0 30.0
37  0 1 -0.0 0.0 30.0
38  0 1 -0.0 0.0 30.0
39  0 1 0.0 0.0 30.0
40  0 1 0.0 0.0 30.0
41  0 1 0.0 0.0 30.0
42  0 1 0.0 0.0 30.0
43  0 1 0.0 0.0 30.0
44  0 1 0.0 0.0 30.0
45  0 1 0.0 0.0 30.0
46  0 1 0.0 0.0 30.0
47  0 1 0.0 0.0 30.0
48  0 1 0.0 0.0 30.0
49  0 1 0.0 0.0 30.0
50  0 1 0.0 0.0 30.0
51  0 1 0.0 0.0 30.0
52  0 1 0.0 -0.0 30.0
53  0 1 0.0 -0.0 30.0
54  0 1 0.0 -0.0 30.0
55  0 1 0.0 -0.0 30.0
56  0 1 0.0 -0.0 30.0
57  0 1 0.0 -0.0 30.0
58  0 1 0.0 -0.0 30.0
59  0 1 0.0 -0.0 30.0
60  0 1 0.0 -0.0 30.0
61  0 1 0.0 -0.0 30.0
62  0 1 0.0 -0.0 30.0
63  0 1 0.0 -0.0 30.0
64  0 1 -0.0 -0.0 30.0
65  0 1 -0.0 -0.0 30.0
66  0 1 -0.0 -0.0 30.0
67  0 1 -0.0 -0.0 30.0
68  0 1 -0.0 -0.0 30.0
69  0 1 -0.0 -0.0 30.0
70  0 1 -0.0 -0.0 30.0
71  0 1 -0.0 -0.0 30.0
72  0 1 -0.0 -0.0 30.0
73  0 1 -0.0 -0.0 30.0
74  0 1 -0.0 -0.0 30.0
75  0 1 -0.0 -0.0 30.0
76  0 1 -0.0 -0.0 30.0
77  0 1 -0.0 0.0 30.0
78  0 1 -0.0 0.0 30.0
79  0 1 -0.0 0.0 30.0
80  0 1 -0.0 0.0 30.0
81  0 1 -0.0 0.0 30.0
82  0 1 -0.0 0.0 30.0
83  0 1 -0.0 0.0 30.0
84  0 1 -0.0 0.0 30.0
85  0 1 -0.0 0.0 30.0
86  0 1 -0.0 0.0 30.0
87  0 1 -0.0 0.0 30.0
88  0 1 -0.0 0.0 30.0
89  0 1 0.0 0.0 30.0
90  0 1 0.0 0.0 30.0
91  0 1 0.0 0.0 30.0
92  0 1 0.0 0.0 30.0
93  0 1 0.0 0.0 30.0
94  0 1 0.0 0.0 30.0
95  0 1 0.0 0.0 30.0
96  0 1 0.0 0.0 30.0
97  0 1 0.0 0.0 30.0
98  0 1 0.0 0.0 30.0
99  0 1 0.0 0.0 30.0
100  0 1 0.0 0.0 30.0
101  0 1 5.969924622639726 -1.4622098160533423e-15 29.4
102  0 1 5.922849983860158 -0.748229957090598 29.4
103  0 1 5.782368462696035 -1.484659880786965 29.4
104  0 1 5.55069553665571 -2.1976758312704936 29.4
105  0 1 5.231484826177531 -2.876033121066989 29.4
106  0 1 4.8297704748529835 -3.5090336504853403 29.4
107  0 1 4.351887757974968 -4.0866946230404455 29.4
108  0 1 3.805373171461952 -4.599905980117167 29.4
109  0 1 3.1988455768152413 -5.0405740720368 29.4
110  0 1 2.541870276524421 -5.4017492997474195 29.4
111  0 1 1.844808163533119 -5.677735714152398 29.4
112  0 1 1.1186523237679158 -5.8641808446302806 29.4
113  0 1 0.3748546686063853 -5.958144340096509 29.4
114  0 1 -0.3748546686063875 -5.958144340096509 29.4
115  0 1 -1.1186523237679178 -5.8641808446302806 29.4
116  0 1 -1.8448081635331213 -5.677735714152397 29.4
117  0 1 -2.541870276524423 -5.401749299747419 29.4
118  0 1 -3.198845576815238 -5.040574072036802 29.4
119  0 1 -3.8053731714619534 -4.599905980117166 29.4
120  0 1 -4.351887757974971 -4.086694623040442 29.4
121  0 1 -4.829770474852985 -3.509033650485336 29.4
122  0 1 -5.231484826177533 -2.876033121066985 29.4
123  0 1 -5.55069553665571 -2.1976758312704936 29.4
124  0 1 -5.782368462696036 -1.4846598807869604 29.4
125  0 1 -5.922849983860159 -0.7482299570905959 29.4
126  0 1 -5.969924622639726 7.311049080266711e-16 29.4
127  0 1 -5.922849983860158 0.7482299570905974 29.4
128  0 1 -5.782368462696035 1.4846598807869644 29.4
129  0 1 -5.550695536655709 2.197675831270495 29.4
130  0 1 -5.231484826177533 2.8760331210669836 29.4
131  0 1 -4.8297704748529835 3.5090336504853394 29.4
132  0 1 -4.351887757974969 4.086694623040445 29.4
133  0 1 -3.805373171461955 4.599905980117165 29.4
134  0 1 -3.1988455768152417 5.0405740720368 29.4
135  0 1 -2.5418702765244263 5.401749299747417 29.4
136  0 1 -1.8448081635331184 5.677735714152398 29.4
137  0 1 -1.1186523237679176 5.8641808446302806 29.4
138  0 1 -0.37485466860638866 5.958144340096509 29.4
139  0 1 0.37485466860638944 5.958144340096509 29.4
140  0 1 1.1186523237679185 5.8641808446302806 29.4
141  0 1 1.8448081635331204 5.677735714152397 29.4
142  0 1 2.5418702765244263 5.401749299747418 29.4
143  0 1 3.19884557681524 5.0405740720368 29.4
144  0 1 3.805373171461955 4.599905980117165 29.4
145  0 1 4.3518877579749695 4.086694623040443 29.4
146  0 1 4.8297704748529835 3.5090336504853386 29.4
147  0 1 5.231484826177533 2.8760331210669845 29.4
148  0 1 5.55069553665571 2.1976758312704936 29.4
149  0 1 5.782368462696036 1.4846598807869618 29.4
150  0 1 5.922849983860159 0.7482299570905957 29.4
151  0 1 5.969924622639726 0.0 29.4
152  0 1 5.922849983860159 -0.7482299570905957 29.4
153  0 1 5.782368462696036 -1.4846598807869618 29.4
154  0 1 5.55069553665571 -2.1976758312704936 29.4
155  0 1 5.231484826177533 -2.8760331210669845 29.4
156  0 1 4.8297704748529835 -3.5090336504853386 29.4
157  0 1 4.3518877579749695 -4.086694623040443 29.4
158  0 1 3.805373171461955 -4.599905980117165 29.4
159  0 1 3.19884557681524 -5.0405740720368 29.4
160  0 1 2.5418702765244263 -5.401749299747418 29.4
161  0 1 1.8448081635331204 -5.677735714152397 29.4
162  0 1 1.1186523237679185 -5.8641808446302806 29.4
163  0 1 0.37485466860638944 -5.958144340096509 29.4
164  0 1 -0.37485466860638866 -5.958144340096509 29.4
165  0 1 -1.1186523237679176 -5.8641808446302806 29.4
166  0 1 -1.8448081635331184 -5.677735714152398 29.4
167  0 1 -2.5418702765244263 -5.401749299747417 29.4
168  0 1 -3.1988455768152417 -5.0405740720368 29.4
169  0 1 -3.805373171461955 -4.599905980117165 29.4
170  0 1 -4.351887757974969 -4.086694623040445 29.4
171  0 1 -4.8297704748529835 -3.5090336504853394 29.4
172  0 1 -5.231484826177533 -2.8760331210669836 29.4
173  0 1 -5.550695536655709 -2.197675831270495 29.4
174  0 1 -5.782368462696035 -1.4846598807869644 29.4
175  0 1 -5.922849983860158 -0.7482299570905974 29.4
176  0 1 -5.969924622639726 -7.311049080266711e-16 29.4
177  0 1 -5.922849983860159 0.7482299570905959 29.4
178  0 1 -5.782368462696036 1.4846598807869604 29.4
179  0 1 -5.55069553665571 2.1976758312704936 29.4
180  0 1 -5.231484826177533 2.876033121066985 29.4
181  0 1 -4.829770474852985 3.509033650485336 29.4
182  0 1 -4.351887757974971 4.086694623040442 29.4
183  0 1 -3.8053731714619534 4.599905980117166 29.4
184  0 1 -3.198845576815238 5.040574072036802 29.4
185  0 1 -2.541870276524423 5.401749299747419 29.4
186  0 1 -1.8448081635331213 5.677735714152397 29.4
187  0 1 -1.1186523237679178 5.8641808446302806 29.4
188  0 1 -0.3748546686063875 5.958144340096509 29.4
189  0 1 0.3748546686063853 5.958144340096509 29.4
190  0 1 1.1186523237679158 5.8641808446302806 29.4
191  0 1 1.844808163533119 5.677735714152398 29.4
192  0 1 2.541870276524421 5.4017492997474195 29.4
193  0 1 3.1988455768152413 5.0405740720368 29.4
194  0 1 3.805373171461952 4.599905980117167 29.4
195  0 1 4.351887757974968 4.0866946230404455 29.4
196  0 1 4.8297704748529835 3.5090336504853403 29.4
197  0 1 5.231484826177531 2.876033121066989 29.4
198  0 1 5.55069553665571 2.1976758312704936 29.4
199  0 1 5.782368462696035 1.484659880786965 29.4
200  0 1 5.922849983860158 0.748229957090598 29.4
201  0 1 8.4 -2.057406622567554e-15 28.8
202  0 1 8.333763491041614 -1.052799161940159 28.8
203  0 1 8.136098553480501 -2.088995052184785 28.8
204  0 1 7.810122481461313 -3.0922462425512944 28.8
205  0 1 7.360976112368451 -4.046730862454416 28.8
206  0 1 6.795742752749558 -4.937396119256777 28.8
207  0 1 6.123336470339855 -5.7501956898009885 28.8
208  0 1 5.35436151388899 -6.472311239316633 28.8
209  0 1 4.500945077823573 -7.092354574216927 28.8
210  0 1 3.5765460491466037 -7.600547240714568 28.8
211  0 1 2.595742752749557 -7.988874736879291 28.8
212  0 1 1.574003042520084 -8.251212906120985 28.8
213  0 1 0.5274403640462278 -8.383424518797481 28.8
214  0 1 -0.527440364046231 -8.383424518797481 28.8
215  0 1 -1.5740030425200868 -8.251212906120985 28.8
216  0 1 -2.59574275274956 -7.98887473687929 28.8
217  0 1 -3.576546049146607 -7.600547240714567 28.8
218  0 1 -4.50094507782357 -7.092354574216929 28.8
219  0 1 -5.354361513888992 -6.472311239316631 28.8
220  0 1 -6.12333647033986 -5.750195689800983 28.8
221  0 1 -6.795742752749562 -4.93739611925677 28.8
222  0 1 -7.360976112368454 -4.046730862454409 28.8
223  0 1 -7.810122481461313 -3.0922462425512944 28.8
224  0 1 -8.136098553480503 -2.0889950521847784 28.8
225  0 1 -8.333763491041616 -1.0527991619401562 28.8
226  0 1 -8.4 1.028703311283777e-15 28.8
227  0 1 -8.333763491041614 1.0527991619401582 28.8
228  0 1 -8.136098553480501 2.088995052184784 28.8
229  0 1 -7.810122481461312 3.0922462425512967 28.8
230  0 1 -7.360976112368454 4.0467308624544085 28.8
231  0 1 -6.795742752749558 4.937396119256776 28.8
232  0 1 -6.123336470339856 5.750195689800987 28.8
233  0 1 -5.354361513888994 6.47231123931663 28.8
234  0 1 -4.500945077823574 7.092354574216927 28.8
235  0 1 -3.5765460491466112 7.600547240714564 28.8
236  0 1 -2.595742752749556 7.988874736879291 28.8
237  0 1 -1.5740030425200866 8.251212906120985 28.8
238  0 1 -0.5274403640462326 8.383424518797481 28.8
239  0 1 0.5274403640462337 8.383424518797481 28.8
240  0 1 1.574003042520088 8.251212906120985 28.8
241  0 1 2.5957427527495587 7.98887473687929 28.8
242  0 1 3.5765460491466103 7.600547240714565 28.8
243  0 1 4.500945077823571 7.092354574216928 28.8
244  0 1 5.354361513888994 6.47231123931663 28.8
245  0 1 6.123336470339858 5.750195689800985 28.8
246  0 1 6.795742752749559 4.937396119256775 28.8
247  0 1 7.360976112368454 4.046730862454409 28.8
248  0 1 7.810122481461313 3.0922462425512944 28.8
249  0 1 8.136098553480501 2.0889950521847807 28.8
250  0 1 8.333763491041616 1.0527991619401558 28.8
251  0 1 8.4 0.0 28.8
252  0 1 8.333763491041616 -1.0527991619401558 28.8
253  0 1 8.136098553480501 -2.0889950521847807 28.8
254  0 1 7.810122481461313 -3.0922462425512944 28.8
255  0 1 7.360976112368454 -4.046730862454409 28.8
256  0 1 6.795742752749559 -4.937396119256775 28.8
257  0 1 6.123336470339858 -5.750195689800985 28.8
258  0 1 5.354361513888994 -6.47231123931663 28.8
259  0 1 4.500945077823571 -7.092354574216928 28.8
260  0 1 3.5765460491466103 -7.600547240714565 28.8
261  0 1 2.5957427527495587 -7.98887473687929 28.8
262  0 1 1.574003042520088 -8.251212906120985 28.8
263  0 1 0.5274403640462337 -8.383424518797481 28.8
264  0 1 -0.5274403640462326 -8.383424518797481 28.8
265  0 1 -1.5740030425200866 -8.251212906120985 28.8
266  0 1 -2.595742752749556 -7.988874736879291 28.8
267  0 1 -3.5765460491466112 -7.600547240714564 28.8
268  0 1 -4.500945077823574 -7.092354574216927 28.8
269  0 1 -5.354361513888994 -6.47231123931663 28.8
270  0 1 -6.123336470339856 -5.750195689800987 28.8
271  0 1 -6.795742752749558 -4.937396119256776 28.8
272  0 1 -7.360976112368454 -4.0467308624544085 28.8
273  0 1 -7.810122481461312 -3.0922462425512967 28.8
274  0 1 -8.136098553480501 -2.088995052184784 28.8
275  0 1 -8.333763491041614 -1.0527991619401582 28.8
276  0 1 -8.4 -1.028703311283777e-15 28.8
277  0 1 -8.333763491041616 1.0527991619401562 28.8
278  0 1 -8.136098553480503 2.0889950521847784 28.8
279  0 1 -7.810122481461313 3.0922462425512944 28.8
280  0 1 -7.360976112368454 4.046730862454409 28.8
281  0 1 -6.795742752749562 4.93739611925677 28.8
282  0 1 -6.12333647033986 5.750195689800983 28.8
283  0 1 -5.354361513888992 6.472311239316631 28.8
284  0 1 -4.50094507782357 7.092354574216929 28.8
285  0 1 -3.576546049146607 7.600547240714567 28.8
286  0 1 -2.59574275274956 7.98887473687929 28.8
287  0 1 -1.5740030425200868 8.251212906120985 28.8
288  0 1 -0.527440364046231 8.383424518797481 28.8
289  0 1 0.5274403640462278 8.383424518797481 28.8
290  0 1 1.574003042520084 8.251212906120985 28.8
291  0 1 2.595742752749557 7.988874736879291 28.8
292  0 1 3.5765460491466037 7.600547240714568 28.8
293  0 1 4.500945077823573 7.092354574216927 28.8
294  0 1 5.35436151388899 6.472311239316633 28.8
295  0 1 6.123336470339855 5.7501956898009885 28.8
296  0 1 6.795742752749558 4.937396119256777 28.8
297  0 1 7.360976112368451 4.046730862454416 28.8
298  0 1 7.810122481461313 3.0922462425512944 28.8
299  0 1 8.136098553480501 2.088995052184785 28.8
300  0 1 8.333763491041614 1.052799161940159 28.8
301  0 1 10.235233265539192 -2.5069091314338167e-15 28.2
302  0 1 10.154525394124422 -1.282814881454964 28.2
303  0 1 9.91367459122487 -2.5453990059129152 28.2
304  0 1 9.516479217879562 -3.7678406674999496 28.2
305  0 1 8.969203282399157 -4.930861230961611 28.2
306  0 1 8.280477653212994 -6.01611916725727 28.2
307  0 1 7.4611639449180736 -7.0064993104298985 28.2
308  0 1 6.524183224128497 -7.886382773997236 28.2
309  0 1 5.484312236536276 -8.64189327012192 28.2
310  0 1 4.357950368804533 -9.261115946959983 28.2
311  0 1 3.162861020443397 -9.734285292991972 28.2
312  0 1 1.917891464388269 -10.053939144973311 28.2
313  0 1 0.642675614246911 -10.215036370706294 28.2
314  0 1 -0.6426756142469148 -10.215036370706294 28.2
315  0 1 -1.9178914643882727 -10.053939144973311 28.2
316  0 1 -3.1628610204434007 -9.734285292991972 28.2
317  0 1 -4.357950368804537 -9.26111594695998 28.2
318  0 1 -5.4843122365362715 -8.641893270121924 28.2
319  0 1 -6.524183224128499 -7.886382773997234 28.2
320  0 1 -7.461163944918079 -7.006499310429892 28.2
321  0 1 -8.280477653212998 -6.016119167257262 28.2
322  0 1 -8.96920328239916 -4.930861230961604 28.2
323  0 1 -9.516479217879562 -3.7678406674999496 28.2
324  0 1 -9.913674591224872 -2.5453990059129077 28.2
325  0 1 -10.154525394124423 -1.2828148814549605 28.2
326  0 1 -10.235233265539192 1.2534545657169084e-15 28.2
327  0 1 -10.154525394124422 1.282814881454963 28.2
328  0 1 -9.91367459122487 2.5453990059129143 28.2
329  0 1 -9.516479217879562 3.7678406674999523 28.2
330  0 1 -8.96920328239916 4.930861230961602 28.2
331  0 1 -8.280477653212994 6.016119167257268 28.2
332  0 1 -7.461163944918074 7.006499310429897 28.2
333  0 1 -6.524183224128501 7.886382773997233 28.2
334  0 1 -5.484312236536277 8.64189327012192 28.2
335  0 1 -4.357950368804542 9.261115946959977 28.2
336  0 1 -3.162861020443396 9.734285292991972 28.2
337  0 1 -1.9178914643882723 10.053939144973311 28.2
338  0 1 -0.6426756142469168 10.215036370706294 28.2
339  0 1 0.6426756142469181 10.215036370706294 28.2
340  0 1 1.9178914643882738 10.05393914497331 28.2
341  0 1 3.1628610204433993 9.734285292991972 28.2
342  0 1 4.357950368804542 9.261115946959979 28.2
343  0 1 5.484312236536273 8.64189327012192 28.2
344  0 1 6.524183224128501 7.886382773997233 28.2
345  0 1 7.461163944918077 7.006499310429895 28.2
346  0 1 8.280477653212996 6.016119167257267 28.2
347  0 1 8.96920328239916 4.930861230961603 28.2
348  0 1 9.516479217879562 3.7678406674999496 28.2
349  0 1 9.913674591224872 2.54539900591291 28.2
350  0 1 10.154525394124423 1.28281488145496 28.2
351  0 1 10.235233265539192 0.0 28.2
352  0 1 10.154525394124423 -1.28281488145496 28.2
353  0 1 9.913674591224872 -2.54539900591291 28.2
354  0 1 9.516479217879562 -3.7678406674999496 28.2
355  0 1 8.96920328239916 -4.930861230961603 28.2
356  0 1 8.280477653212996 -6.016119167257267 28.2
357  0 1 7.461163944918077 -7.006499310429895 28.2
358  0 1 6.524183224128501 -7.886382773997233 28.2
359  0 1 5.484312236536273 -8.64189327012192 28.2
360  0 1 4.357950368804542 -9.261115946959979 28.2
361  0 1 3.1628610204433993 -9.734285292991972 28.2
362  0 1 1.9178914643882738 -10.05393914497331 28.2
363  0 1 0.6426756142469181 -10.215036370706294 28.2
364  0 1 -0.6426756142469168 -10.215036370706294 28.2
365  0 1 -1.9178914643882723 -10.053939144973311 28.2
366  0 1 -3.162861020443396 -9.734285292991972 28.2
367  0 1 -4.357950368804542 -9.261115946959977 28.2
368  0 1 -5.484312236536277 -8.64189327012192 28.2
369  0 1 -6.524183224128501 -7.886382773997233 28.2
370  0 1 -7.461163944918074 -7.006499310429897 28.2
371  0 1 -8.280477653212994 -6.016119167257268 28.2
372  0 1 -8.96920328239916 -4.930861230961602 28.2
373  0 1 -9.516479217879562 -3.7678406674999523 28.2
374  0 1 -9.91367459122487 -2.5453990059129143 28.2
375  0 1 -10.154525394124422 -1.282814881454963 28.2
376  0 1 -10.235233265539192 -1.2534545657169084e-15 28.2
377  0 1 -10.154525394124423 1.2828148814549605 28.2
378  0 1 -9.913674591224872 2.5453990059129077 28.2
379  0 1 -9.516479217879562 3.7678406674999496 28.2
380  0 1 -8.96920328239916 4.930861230961604 28.2
381  0 1 -8.280477653212998 6.016119167257262 28.2
382  0 1 -7.461163944918079 7.006499310429892 28.2
383  0 1 -6.524183224128499 7.886382773997234 28.2
384  0 1 -5.4843122365362715 8.641893270121924 28.2
385  0 1 -4.357950368804537 9.26111594695998 28.2
386  0 1 -3.1628610204434007 9.734285292991972 28.2
387  0 1 -1.9178914643882727 10.053939144973311 28.2
388  0 1 -0.6426756142469148 10.215036370706294 28.2
389  0 1 0.642675614246911 10.215036370706294 28.2
390  0 1 1.917891464388269 10.053939144973311 28.2
391  0 1 3.162861020443397 9.734285292991972 28.2
392  0 1 4.357950368804533 9.261115946959983 28.2
393  0 1 5.484312236536276 8.64189327012192 28.2
394  0 1 6.524183224128497 7.886382773997236 28.2
395  0 1 7.4611639449180736 7.0064993104298985 28.2
396  0 1 8.280477653212994 6.01611916725727 28.2
397  0 1 8.969203282399157 4.930861230961611 28.2
398  0 1 9.516479217879562 3.7678406674999496 28.2
399  0 1 9.91367459122487 2.5453990059129152 28.2
400  0 1 10.154525394124422 1.282814881454964 28.2
401  0 1 11.757550765359253 -2.8797693821219447e-15 27.6
402  0 1 11.664838965764206 -1.4736118562189402 27.6
403  0 1 11.38816568744202 -2.9239839731722514 27.6
404  0 1 10.931894233268448 -4.328243116165267 27.6
405  0 1 10.30322027663915 -5.6642432796492646 27.6
406  0 1 9.512058381401806 -6.910914942958252 27.6
407  0 1 8.570885643261498 -8.048597349236319 27.6
408  0 1 7.49454491852805 -9.059348567317926 27.6
409  0 1 6.300010743405299 -9.927228446700408 27.6
410  0 1 5.006121635415031 -10.63855000323961 27.6
411  0 1 3.633282998722177 -11.18209527106599 27.6
412  0 1 2.2031453187214054 -11.54929221660773 27.6
413  0 1 0.7382627209491773 -11.734349924680815 27.6
414  0 1 -0.7382627209491817 -11.734349924680815 27.6
415  0 1 -2.2031453187214094 -11.54929221660773 27.6
416  0 1 -3.633282998722181 -11.182095271065988 27.6
417  0 1 -5.0061216354150355 -10.638550003239608 27.6
418  0 1 -6.300010743405294 -9.927228446700411 27.6
419  0 1 -7.494544918528053 -9.059348567317922 27.6
420  0 1 -8.570885643261505 -8.048597349236312 27.6
421  0 1 -9.51205838140181 -6.910914942958244 27.6
422  0 1 -10.303220276639154 -5.664243279649257 27.6
423  0 1 -10.931894233268448 -4.328243116165267 27.6
424  0 1 -11.388165687442022 -2.923983973172242 27.6
425  0 1 -11.664838965764208 -1.473611856218936 27.6
426  0 1 -11.757550765359253 1.4398846910609723e-15 27.6
427  0 1 -11.664838965764206 1.4736118562189389 27.6
428  0 1 -11.38816568744202 2.92398397317225 27.6
429  0 1 -10.931894233268448 4.32824311616527 27.6
430  0 1 -10.303220276639154 5.664243279649254 27.6
431  0 1 -9.512058381401806 6.910914942958251 27.6
432  0 1 -8.5708856432615 8.048597349236317 27.6
433  0 1 -7.494544918528056 9.05934856731792 27.6
434  0 1 -6.300010743405301 9.927228446700408 27.6
435  0 1 -5.006121635415042 10.638550003239605 27.6
436  0 1 -3.6332829987221755 11.18209527106599 27.6
437  0 1 -2.2031453187214094 11.54929221660773 27.6
438  0 1 -0.738262720949184 11.734349924680815 27.6
439  0 1 0.7382627209491854 11.734349924680815 27.6
440  0 1 2.2031453187214107 11.54929221660773 27.6
441  0 1 3.6332829987221795 11.182095271065988 27.6
442  0 1 5.006121635415041 10.638550003239606 27.6
443  0 1 6.300010743405297 9.92722844670041 27.6
444  0 1 7.494544918528056 9.05934856731792 27.6
445  0 1 8.570885643261503 8.048597349236315 27.6
446  0 1 9.512058381401808 6.910914942958249 27.6
447  0 1 10.303220276639154 5.664243279649256 27.6
448  0 1 10.931894233268448 4.328243116165267 27.6
449  0 1 11.388165687442022 2.9239839731722452 27.6
450  0 1 11.664838965764208 1.4736118562189355 27.6
451  0 1 11.757550765359253 0.0 27.6
452  0 1 11.664838965764208 -1.4736118562189355 27.6
453  0 1 11.388165687442022 -2.9239839731722452 27.6
454  0 1 10.931894233268448 -4.328243116165267 27.6
455  0 1 10.303220276639154 -5.664243279649256 27.6
456  0 1 9.512058381401808 -6.910914942958249 27.6
457  0 1 8.570885643261503 -8.048597349236315 27.6
458  0 1 7.494544918528056 -9.05934856731792 27.6
459  0 1 6.300010743405297 -9.92722844670041 27.6
460  0 1 5.006121635415041 -10.638550003239606 27.6
461  0 1 3.6332829987221795 -11.182095271065988 27.6
462  0 1 2.2031453187214107 -11.54929221660773 27.6
463  0 1 0.7382627209491854 -11.734349924680815 27.6
464  0 1 -0.738262720949184 -11.734349924680815 27.6
465  0 1 -2.2031453187214094 -11.54929221660773 27.6
466  0 1 -3.6332829987221755 -11.18209527106599 27.6
467  0 1 -5.006121635415042 -10.638550003239605 27.6
468  0 1 -6.300010743405301 -9.927228446700408 27.6
469  0 1 -7.494544918528056 -9.05934856731792 27.6
470  0 1 -8.5708856432615 -8.048597349236317 27.6
471  0 1 -9.512058381401806 -6.910914942958251 27.6
472  0 1 -10.303220276639154 -5.664243279649254 27.6
473  0 1 -10.931894233268448 -4.32824311616527 27.6
474  0 1 -11.38816568744202 -2.92398397317225 27.6
475  0 1 -11.664838965764206 -1.4736118562189389 27.6
476  0 1 -11.757550765359253 -1.4398846910609723e-15 27.6
477  0 1 -11.664838965764208 1.473611856218936 27.6
478  0 1 -11.388165687442022 2.923983973172242 27.6
479  0 1 -10.931894233268448 4.328243116165267 27.6
480  0 1 -10.303220276639154 5.664243279649257 27.6
481  0 1 -9.51205838140181 6.910914942958244 27.6
482  0 1 -8.570885643261505 8.048597349236312 27.6
483  0 1 -7.494544918528053 9.059348567317922 27.6
484  0 1 -6.300010743405294 9.927228446700411 27.6
485  0 1 -5.0061216354150355 10.638550003239608 27.6
486  0 1 -3.633282998722181 11.182095271065988 27.6
487  0 1 -2.2031453187214094 11.54929221660773 27.6
488  0 1 -0.7382627209491817 11.734349924680815 27.6
489  0 1 0.7382627209491773 11.734349924680815 27.6
490  0 1 2.2031453187214054 11.54929221660773 27.6
491  0 1 3.633282998722177 11.18209527106599 27.6
492  0 1 5.006121635415031 10.63855000323961 27.6
493  0 1 6.300010743405299 9.927228446700408 27.6
494  0 1 7.49454491852805 9.059348567317926 27.6
495  0 1 8.570885643261498 8.048597349236319 27.6
496  0 1 9.512058381401806 6.910914942958252 27.6
497  0 1 10.30322027663915 5.6642432796492646 27.6
498  0 1 10.931894233268448 4.328243116165267 27.6
499  0 1 11.38816568744202 2.9239839731722514 27.6
500  0 1 11.664838965764206 1.4736118562189402 27.6
501  0 1 13.076696830622017 -3.202866983408319e-15 27.0
502  0 1 12.973583170292542 -1.6389446981219518 27.0
503  0 1 12.665868353324624 -3.2520422592964113 27.0
504  0 1 12.158405226201776 -4.813853171365875 27.0
505  0 1 11.459196785582488 -6.299746743266423 27.0
506  0 1 10.579269966262226 -7.68628954573935 27.0
507  0 1 9.53250173982445 -8.951614970509162 27.0
508  0 1 8.335400266509126 -10.075768079758461 27.0
509  0 1 7.0068445516642015 -11.041020307417863 27.0
510  0 1 5.567786712553463 -11.832149049243466 27.0
511  0 1 4.040921550951214 -12.436677732379254 27.0
512  0 1 2.450328642560928 -12.84507257836426 27.0
513  0 1 0.821092587722075 -13.05089295651404 27.0
514  0 1 -0.8210925877220799 -13.05089295651404 27.0
515  0 1 -2.4503286425609323 -12.84507257836426 27.0
516  0 1 -4.040921550951219 -12.436677732379252 27.0
517  0 1 -5.567786712553468 -11.832149049243464 27.0
518  0 1 -7.006844551664195 -11.041020307417869 27.0
519  0 1 -8.33540026650913 -10.075768079758458 27.0
520  0 1 -9.53250173982446 -8.951614970509155 27.0
521  0 1 -10.579269966262231 -7.68628954573934 27.0
522  0 1 -11.459196785582494 -6.2997467432664145 27.0
523  0 1 -12.158405226201776 -4.813853171365875 27.0
524  0 1 -12.665868353324628 -3.252042259296401 27.0
525  0 1 -12.973583170292544 -1.638944698121947 27.0
526  0 1 -13.076696830622017 1.6014334917041595e-15 27.0
527  0 1 -12.973583170292542 1.6389446981219504 27.0
528  0 1 -12.665868353324624 3.25204225929641 27.0
529  0 1 -12.158405226201774 4.813853171365879 27.0
530  0 1 -11.459196785582494 6.299746743266412 27.0
531  0 1 -10.579269966262226 7.686289545739348 27.0
532  0 1 -9.532501739824452 8.95161497050916 27.0
533  0 1 -8.335400266509133 10.075768079758456 27.0
534  0 1 -7.006844551664202 11.041020307417863 27.0
535  0 1 -5.567786712553475 11.832149049243458 27.0
536  0 1 -4.040921550951213 12.436677732379254 27.0
537  0 1 -2.450328642560932 12.84507257836426 27.0
538  0 1 -0.8210925877220825 13.05089295651404 27.0
539  0 1 0.8210925877220842 13.05089295651404 27.0
540  0 1 2.450328642560934 12.845072578364258 27.0
541  0 1 4.040921550951217 12.436677732379252 27.0
542  0 1 5.567786712553474 11.83214904924346 27.0
543  0 1 7.006844551664198 11.041020307417865 27.0
544  0 1 8.335400266509133 10.075768079758456 27.0
545  0 1 9.532501739824456 8.951614970509159 27.0
546  0 1 10.579269966262228 7.6862895457393465 27.0
547  0 1 11.459196785582494 6.299746743266414 27.0
548  0 1 12.158405226201776 4.813853171365875 27.0
549  0 1 12.665868353324626 3.2520422592964042 27.0
550  0 1 12.973583170292544 1.6389446981219467 27.0
551  0 1 13.076696830622017 0.0 27.0
552  0 1 12.973583170292544 -1.6389446981219467 27.0
553  0 1 12.665868353324626 -3.2520422592964042 27.0
554  0 1 12.158405226201776 -4.813853171365875 27.0
555  0 1 11.459196785582494 -6.299746743266414 27.0
556  0 1 10.579269966262228 -7.6862895457393465 27.0
557  0 1 9.532501739824456 -8.951614970509159 27.0
558  0 1 8.335400266509133 -10.075768079758456 27.0
559  0 1 7.006844551664198 -11.041020307417865 27.0
560  0 1 5.567786712553474 -11.83214904924346 27.0
561  0 1 4.040921550951217 -12.436677732379252 27.0
562  0 1 2.450328642560934 -12.845072578364258 27.0
563  0 1 0.8210925877220842 -13.05089295651404 27.0
564  0 1 -0.8210925877220825 -13.05089295651404 27.0
565  0 1 -2.450328642560932 -12.84507257836426 27.0
566  0 1 -4.040921550951213 -12.436677732379254 27.0
567  0 1 -5.567786712553475 -11.832149049243458 27.0
568  0 1 -7.006844551664202 -11.041020307417863 27.0
569  0 1 -8.335400266509133 -10.075768079758456 27.0
570  0 1 -9.532501739824452 -8.95161497050916 27.0
571  0 1 -10.579269966262226 -7.686289545739348 27.0
572  0 1 -11.459196785582494 -6.299746743266412 27.0
573  0 1 -12.158405226201774 -4.813853171365879 27.0
574  0 1 -12.665868353324624 -3.25204225929641 27.0
575  0 1 -12.973583170292542 -1.6389446981219504 27.0
576  0 1 -13.076696830622017 -1.6014334917041595e-15 27.0
577  0 1 -12.973583170292544 1.638944698121947 27.0
578  0 1 -12.665868353324628 3.252042259296401 27.0
579  0 1 -12.158405226201776 4.813853171365875 27.0
580  0 1 -11.459196785582494 6.2997467432664145 27.0
581  0 1 -10.579269966262231 7.68628954573934 27.0
582  0 1 -9.53250173982446 8.951614970509155 27.0
583  0 1 -8.33540026650913 10.075768079758458 27.0
584  0 1 -7.006844551664195 11.041020307417869 27.0
585  0 1 -5.567786712553468 11.832149049243464 27.0
586  0 1 -4.040921550951219 12.436677732379252 27.0
587  0 1 -2.4503286425609323 12.84507257836426 27.0
588  0 1 -0.8210925877220799 13.05089295651404 27.0
589  0 1 0.821092587722075 13.05089295651404 27.0
590  0 1 2.450328642560928 12.84507257836426 27.0
591  0 1 4.040921550951214 12.436677732379254 27.0
592  0 1 5.567786712553463 11.832149049243466 27.0
593  0 1 7.0068445516642015 11.041020307417863 27.0
594  0 1 8.335400266509126 10.075768079758461 27.0
595  0 1 9.53250173982445 8.951614970509162 27.0
596  0 1 10.579269966262226 7.68628954573935 27.0
597  0 1 11.459196785582488 6.299746743266423 27.0
598  0 1 12.158405226201776 4.813853171365875 27.0
599  0 1 12.665868353324624 3.2520422592964113 27.0
600  0 1 12.973583170292542 1.6389446981219518 27.0
601  0 1 14.2492105044455 -3.4900500069292055e-15 26.4
602  0 1 14.136851223585067 -1.7858996282606112 26.4
603  0 1 13.801545353983117 -3.543634552538823 26.4
604  0 1 13.248580869505297 -5.245484243058813 26.4
605  0 1 12.486678350396778 -6.864609513565387 26.4
606  0 1 11.527853454522427 -8.37547579132406 26.4
607  0 1 10.387227423264392 -9.754255812586843 26.4
608  0 1 9.082788610512583 -10.979205392775148 26.4
609  0 1 7.635108795578087 -12.031006345259991 26.4
610  0 1 6.067018753944385 -12.89307114070527 26.4
611  0 1 4.403248202299674 -13.551804502314248 26.4
612  0 1 2.670035796131709 -13.996817811466123 26.4
613  0 1 0.8947153304566748 -14.221092942437505 26.4
614  0 1 -0.8947153304566801 -14.221092942437505 26.4
615  0 1 -2.6700357961317143 -13.996817811466123 26.4
616  0 1 -4.403248202299679 -13.551804502314246 26.4
617  0 1 -6.06701875394439 -12.893071140705269 26.4
618  0 1 -7.63510879557808 -12.031006345259996 26.4
619  0 1 -9.082788610512587 -10.979205392775144 26.4
620  0 1 -10.3872274232644 -9.754255812586834 26.4
621  0 1 -11.527853454522432 -8.37547579132405 26.4
622  0 1 -12.486678350396783 -6.8646095135653775 26.4
623  0 1 -13.248580869505297 -5.245484243058813 26.4
624  0 1 -13.801545353983121 -3.543634552538812 26.4