LAMMPS data file via write_data, version 14 May 2016-ICMS, timestep = 0

7321 atoms
14604 bonds
44180 angles

1 atom types
1 bond types
1 angle types

-50 50 xlo xhi
-50 50 ylo yhi
-50 50 zlo zhi

Masses

1 10.0

Atoms

1 0 1	-42.4 -7.64640345672391e-15 13.496339174192725
2 0 1	-41.7 -0.699686200326423 13.4781901724943
3 0 1	-41.0 -7.64640345672391e-15 13.496339174192725
4 0 1	-40.3 -0.699686200326423 13.4781901724943
5 0 1	-39.6 -7.64640345672391e-15 13.496339174192725
6 0 1	-38.9 -0.699686200326423 13.4781901724943
7 0 1	-38.2 -7.64640345672391e-15 13.496339174192725
8 0 1	-37.5 -0.699686200326423 13.4781901724943
9 0 1	-36.8 -7.64640345672391e-15 13.496339174192725
10 0 1	-36.1 -0.699686200326423 13.4781901724943
11 0 1	-35.4 -7.64640345672391e-15 13.496339174192725
12 0 1	-34.6 -0.699686200326423 13.4781901724943
13 0 1	-33.9 -7.64640345672391e-15 13.496339174192725
14 0 1	-33.2 -0.699686200326423 13.4781901724943
15 0 1	-32.5 -7.64640345672391e-15 13.496339174192725
16 0 1	-31.8 -0.699686200326423 13.4781901724943
17 0 1	-31.1 -7.64640345672391e-15 13.496339174192725
18 0 1	-30.4 -0.699686200326423 13.4781901724943
19 0 1	-29.7 -7.64640345672391e-15 13.496339174192725
20 0 1	-29.0 -0.699686200326423 13.4781901724943
21 0 1	-28.3 -7.64640345672391e-15 13.496339174192725
22 0 1	-27.6 -0.699686200326423 13.4781901724943
23 0 1	-26.9 -7.64640345672391e-15 13.496339174192725
24 0 1	-26.2 -0.699686200326423 13.4781901724943
25 0 1	-25.5 -7.64640345672391e-15 13.496339174192725
26 0 1	-24.7 -0.699686200326423 13.4781901724943
27 0 1	-24.0 -7.64640345672391e-15 13.496339174192725
28 0 1	-23.3 -0.699686200326423 13.4781901724943
29 0 1	-22.6 -7.64640345672391e-15 13.496339174192725
30 0 1	-21.9 -0.699686200326423 13.4781901724943
31 0 1	-21.2 -7.64640345672391e-15 13.496339174192725
32 0 1	-20.5 -0.699686200326423 13.4781901724943
33 0 1	-19.8 -7.64640345672391e-15 13.496339174192725
34 0 1	-19.1 -0.699686200326423 13.4781901724943
35 0 1	-18.4 -7.64640345672391e-15 13.496339174192725
36 0 1	-17.7 -0.699686200326423 13.4781901724943
37 0 1	-17.0 -7.64640345672391e-15 13.496339174192725
38 0 1	-16.3 -0.699686200326423 13.4781901724943
39 0 1	-15.6 -7.64640345672391e-15 13.496339174192725
40 0 1	-14.8 -0.699686200326423 13.4781901724943
41 0 1	-14.1 -7.64640345672391e-15 13.496339174192725
42 0 1	-13.4 -0.699686200326423 13.4781901724943
43 0 1	-12.7 -7.64640345672391e-15 13.496339174192725
44 0 1	-12.0 -0.699686200326423 13.4781901724943
45 0 1	-11.3 -7.64640345672391e-15 13.496339174192725
46 0 1	-10.6 -0.699686200326423 13.4781901724943
47 0 1	-9.9 -7.64640345672391e-15 13.496339174192725
48 0 1	-9.19 -0.699686200326423 13.4781901724943
49 0 1	-8.49 -7.64640345672391e-15 13.496339174192725
50 0 1	-7.78 -0.699686200326423 13.4781901724943
51 0 1	-7.07 -7.64640345672391e-15 13.496339174192725
52 0 1	-6.36 -0.699686200326423 13.4781901724943
53 0 1	-5.66 -7.64640345672391e-15 13.496339174192725
54 0 1	-4.95 -0.699686200326423 13.4781901724943
55 0 1	-4.24 -7.64640345672391e-15 13.496339174192725
56 0 1	-3.54 -0.699686200326423 13.4781901724943
57 0 1	-2.83 -7.64640345672391e-15 13.496339174192725
58 0 1	-2.12 -0.699686200326423 13.4781901724943
59 0 1	-1.41 -7.64640345672391e-15 13.496339174192725
60 0 1	-0.707 -0.699686200326423 13.4781901724943
61 0 1	0.0 -7.64640345672391e-15 13.496339174192725
62 0 1	0.707 -0.699686200326423 13.4781901724943
63 0 1	1.41 -7.64640345672391e-15 13.496339174192725
64 0 1	2.12 -0.699686200326423 13.4781901724943
65 0 1	2.83 -7.64640345672391e-15 13.496339174192725
66 0 1	3.54 -0.699686200326423 13.4781901724943
67 0 1	4.24 -7.64640345672391e-15 13.496339174192725
68 0 1	4.95 -0.699686200326423 13.4781901724943
69 0 1	5.66 -7.64640345672391e-15 13.496339174192725
70 0 1	6.36 -0.699686200326423 13.4781901724943
71 0 1	7.07 -7.64640345672391e-15 13.496339174192725
72 0 1	7.78 -0.699686200326423 13.4781901724943
73 0 1	8.49 -7.64640345672391e-15 13.496339174192725
74 0 1	9.19 -0.699686200326423 13.4781901724943
75 0 1	9.9 -7.64640345672391e-15 13.496339174192725
76 0 1	10.6 -0.699686200326423 13.4781901724943
77 0 1	11.3 -7.64640345672391e-15 13.496339174192725
78 0 1	12.0 -0.699686200326423 13.4781901724943
79 0 1	12.7 -7.64640345672391e-15 13.496339174192725
80 0 1	13.4 -0.699686200326423 13.4781901724943
81 0 1	14.1 -7.64640345672391e-15 13.496339174192725
82 0 1	14.8 -0.699686200326423 13.4781901724943
83 0 1	15.6 -7.64640345672391e-15 13.496339174192725
84 0 1	16.3 -0.699686200326423 13.4781901724943
85 0 1	17.0 -7.64640345672391e-15 13.496339174192725
86 0 1	17.7 -0.699686200326423 13.4781901724943
87 0 1	18.4 -7.64640345672391e-15 13.496339174192725
88 0 1	19.1 -0.699686200326423 13.4781901724943
89 0 1	19.8 -7.64640345672391e-15 13.496339174192725
90 0 1	20.5 -0.699686200326423 13.4781901724943
91 0 1	21.2 -7.64640345672391e-15 13.496339174192725
92 0 1	21.9 -0.699686200326423 13.4781901724943
93 0 1	22.6 -7.64640345672391e-15 13.496339174192725
94 0 1	23.3 -0.699686200326423 13.4781901724943
95 0 1	24.0 -7.64640345672391e-15 13.496339174192725
96 0 1	24.7 -0.699686200326423 13.4781901724943
97 0 1	25.5 -7.64640345672391e-15 13.496339174192725
98 0 1	26.2 -0.699686200326423 13.4781901724943
99 0 1	26.9 -7.64640345672391e-15 13.496339174192725
100 0 1	27.6 -0.699686200326423 13.4781901724943
101 0 1	28.3 -7.64640345672391e-15 13.496339174192725
102 0 1	29.0 -0.699686200326423 13.4781901724943
103 0 1	29.7 -7.64640345672391e-15 13.496339174192725
104 0 1	30.4 -0.699686200326423 13.4781901724943
105 0 1	31.1 -7.64640345672391e-15 13.496339174192725
106 0 1	31.8 -0.699686200326423 13.4781901724943
107 0 1	32.5 -7.64640345672391e-15 13.496339174192725
108 0 1	33.2 -0.699686200326423 13.4781901724943
109 0 1	33.9 -7.64640345672391e-15 13.496339174192725
110 0 1	34.6 -0.699686200326423 13.4781901724943
111 0 1	35.4 -7.64640345672391e-15 13.496339174192725
112 0 1	36.1 -0.699686200326423 13.4781901724943
113 0 1	36.8 -7.64640345672391e-15 13.496339174192725
114 0 1	37.5 -0.699686200326423 13.4781901724943
115 0 1	38.2 -7.64640345672391e-15 13.496339174192725
116 0 1	38.9 -0.699686200326423 13.4781901724943
117 0 1	39.6 -7.64640345672391e-15 13.496339174192725
118 0 1	40.3 -0.699686200326423 13.4781901724943
119 0 1	41.0 -7.64640345672391e-15 13.496339174192725
120 0 1	41.7 -0.699686200326423 13.4781901724943
121 0 1	42.4 -7.64640345672391e-15 13.496339174192725
122 0 1	-42.4 -1.3974906153962545 13.423791978600107
123 0 1	-41.7 -2.0915365209584262 13.333290894837114
124 0 1	-41.0 -1.3974906153962545 13.423791978600107
125 0 1	-40.3 -2.0915365209584262 13.333290894837114
126 0 1	-39.6 -1.3974906153962545 13.423791978600107
127 0 1	-38.9 -2.0915365209584262 13.333290894837114
128 0 1	-38.2 -1.3974906153962545 13.423791978600107
129 0 1	-37.5 -2.0915365209584262 13.333290894837114
130 0 1	-36.8 -1.3974906153962545 13.423791978600107
131 0 1	-36.1 -2.0915365209584262 13.333290894837114
132 0 1	-35.4 -1.3974906153962545 13.423791978600107
133 0 1	-34.6 -2.0915365209584262 13.333290894837114
134 0 1	-33.9 -1.3974906153962545 13.423791978600107
135 0 1	-33.2 -2.0915365209584262 13.333290894837114
136 0 1	-32.5 -1.3974906153962545 13.423791978600107
137 0 1	-31.8 -2.0915365209584262 13.333290894837114
138 0 1	-31.1 -1.3974906153962545 13.423791978600107
139 0 1	-30.4 -2.0915365209584262 13.333290894837114
140 0 1	-29.7 -1.3974906153962545 13.423791978600107
141 0 1	-29.0 -2.0915365209584262 13.333290894837114
142 0 1	-28.3 -1.3974906153962545 13.423791978600107
143 0 1	-27.6 -2.0915365209584262 13.333290894837114
144 0 1	-26.9 -1.3974906153962545 13.423791978600107
145 0 1	-26.2 -2.0915365209584262 13.333290894837114
146 0 1	-25.5 -1.3974906153962545 13.423791978600107
147 0 1	-24.7 -2.0915365209584262 13.333290894837114
148 0 1	-24.0 -1.3974906153962545 13.423791978600107
149 0 1	-23.3 -2.0915365209584262 13.333290894837114
150 0 1	-22.6 -1.3974906153962545 13.423791978600107
151 0 1	-21.9 -2.0915365209584262 13.333290894837114
152 0 1	-21.2 -1.3974906153962545 13.423791978600107
153 0 1	-20.5 -2.0915365209584262 13.333290894837114
154 0 1	-19.8 -1.3974906153962545 13.423791978600107
155 0 1	-19.1 -2.0915365209584262 13.333290894837114
156 0 1	-18.4 -1.3974906153962545 13.423791978600107
157 0 1	-17.7 -2.0915365209584262 13.333290894837114
158 0 1	-17.0 -1.3974906153962545 13.423791978600107
159 0 1	-16.3 -2.0915365209584262 13.333290894837114
160 0 1	-15.6 -1.3974906153962545 13.423791978600107
161 0 1	-14.8 -2.0915365209584262 13.333290894837114
162 0 1	-14.1 -1.3974906153962545 13.423791978600107
163 0 1	-13.4 -2.0915365209584262 13.333290894837114
164 0 1	-12.7 -1.3974906153962545 13.423791978600107
165 0 1	-12.0 -2.0915365209584262 13.333290894837114
166 0 1	-11.3 -1.3974906153962545 13.423791978600107
167 0 1	-10.6 -2.0915365209584262 13.333290894837114
168 0 1	-9.9 -1.3974906153962545 13.423791978600107
169 0 1	-9.19 -2.0915365209584262 13.333290894837114
170 0 1	-8.49 -1.3974906153962545 13.423791978600107
171 0 1	-7.78 -2.0915365209584262 13.333290894837114
172 0 1	-7.07 -1.3974906153962545 13.423791978600107
173 0 1	-6.36 -2.0915365209584262 13.333290894837114
174 0 1	-5.66 -1.3974906153962545 13.423791978600107
175 0 1	-4.95 -2.0915365209584262 13.333290894837114
176 0 1	-4.24 -1.3974906153962545 13.423791978600107
177 0 1	-3.54 -2.0915365209584262 13.333290894837114
178 0 1	-2.83 -1.3974906153962545 13.423791978600107
179 0 1	-2.12 -2.0915365209584262 13.333290894837114
180 0 1	-1.41 -1.3974906153962545 13.423791978600107
181 0 1	-0.707 -2.0915365209584262 13.333290894837114
182 0 1	0.0 -1.3974906153962545 13.423791978600107
183 0 1	0.707 -2.0915365209584262 13.333290894837114
184 0 1	1.41 -1.3974906153962545 13.423791978600107
185 0 1	2.12 -2.0915365209584262 13.333290894837114
186 0 1	2.83 -1.3974906153962545 13.423791978600107
187 0 1	3.54 -2.0915365209584262 13.333290894837114
188 0 1	4.24 -1.3974906153962545 13.423791978600107
189 0 1	4.95 -2.0915365209584262 13.333290894837114
190 0 1	5.66 -1.3974906153962545 13.423791978600107
191 0 1	6.36 -2.0915365209584262 13.333290894837114
192 0 1	7.07 -1.3974906153962545 13.423791978600107
193 0 1	7.78 -2.0915365209584262 13.333290894837114
194 0 1	8.49 -1.3974906153962545 13.423791978600107
195 0 1	9.19 -2.0915365209584262 13.333290894837114
196 0 1	9.9 -1.3974906153962545 13.423791978600107
197 0 1	10.6 -2.0915365209584262 13.333290894837114
198 0 1	11.3 -1.3974906153962545 13.423791978600107
199 0 1	12.0 -2.0915365209584262 13.333290894837114
200 0 1	12.7 -1.3974906153962545 13.423791978600107
201 0 1	13.4 -2.0915365209584262 13.333290894837114
202 0 1	14.1 -1.3974906153962545 13.423791978600107
203 0 1	14.8 -2.0915365209584262 13.333290894837114
204 0 1	15.6 -1.3974906153962545 13.423791978600107
205 0 1	16.3 -2.0915365209584262 13.333290894837114
206 0 1	17.0 -1.3974906153962545 13.423791978600107
207 0 1	17.7 -2.0915365209584262 13.333290894837114
208 0 1	18.4 -1.3974906153962545 13.423791978600107
209 0 1	19.1 -2.0915365209584262 13.333290894837114
210 0 1	19.8 -1.3974906153962545 13.423791978600107
211 0 1	20.5 -2.0915365209584262 13.333290894837114
212 0 1	21.2 -1.3974906153962545 13.423791978600107
213 0 1	21.9 -2.0915365209584262 13.333290894837114
214 0 1	22.6 -1.3974906153962545 13.423791978600107
215 0 1	23.3 -2.0915365209584262 13.333290894837114
216 0 1	24.0 -1.3974906153962545 13.423791978600107
217 0 1	24.7 -2.0915365209584262 13.333290894837114
218 0 1	25.5 -1.3974906153962545 13.423791978600107
219 0 1	26.2 -2.0915365209584262 13.333290894837114
220 0 1	26.9 -1.3974906153962545 13.423791978600107
221 0 1	27.6 -2.0915365209584262 13.333290894837114
222 0 1	28.3 -1.3974906153962545 13.423791978600107
223 0 1	29.0 -2.0915365209584262 13.333290894837114
224 0 1	29.7 -1.3974906153962545 13.423791978600107
225 0 1	30.4 -2.0915365209584262 13.333290894837114
226 0 1	31.1 -1.3974906153962545 13.423791978600107
227 0 1	31.8 -2.0915365209584262 13.333290894837114
228 0 1	32.5 -1.3974906153962545 13.423791978600107
229 0 1	33.2 -2.0915365209584262 13.333290894837114
230 0 1	33.9 -1.3974906153962545 13.423791978600107
231 0 1	34.6 -2.0915365209584262 13.333290894837114
232 0 1	35.4 -1.3974906153962545 13.423791978600107
233 0 1	36.1 -2.0915365209584262 13.333290894837114
234 0 1	36.8 -1.3974906153962545 13.423791978600107
235 0 1	37.5 -2.0915365209584262 13.333290894837114
236 0 1	38.2 -1.3974906153962545 13.423791978600107
237 0 1	38.9 -2.0915365209584262 13.333290894837114
238 0 1	39.6 -1.3974906153962545 13.423791978600107
239 0 1	40.3 -2.0915365209584262 13.333290894837114
240 0 1	41.0 -1.3974906153962545 13.423791978600107
241 0 1	41.7 -2.0915365209584262 13.333290894837114
242 0 1	42.4 -1.3974906153962545 13.423791978600107
243 0 1	-42.4 -2.779957301161595 13.206930321182417
244 0 1	-41.7 -3.4609014687620263 13.045050100646224
245 0 1	-41.0 -2.779957301161595 13.206930321182417
246 0 1	-40.3 -3.4609014687620263 13.045050100646224
247 0 1	-39.6 -2.779957301161595 13.206930321182417
248 0 1	-38.9 -3.4609014687620263 13.045050100646224
249 0 1	-38.2 -2.779957301161595 13.206930321182417
250 0 1	-37.5 -3.4609014687620263 13.045050100646224
251 0 1	-36.8 -2.779957301161595 13.206930321182417
252 0 1	-36.1 -3.4609014687620263 13.045050100646224
253 0 1	-35.4 -2.779957301161595 13.206930321182417
254 0 1	-34.6 -3.4609014687620263 13.045050100646224
255 0 1	-33.9 -2.779957301161595 13.206930321182417
256 0 1	-33.2 -3.4609014687620263 13.045050100646224
257 0 1	-32.5 -2.779957301161595 13.206930321182417
258 0 1	-31.8 -3.4609014687620263 13.045050100646224
259 0 1	-31.1 -2.779957301161595 13.206930321182417
260 0 1	-30.4 -3.4609014687620263 13.045050100646224
261 0 1	-29.7 -2.779957301161595 13.206930321182417
262 0 1	-29.0 -3.4609014687620263 13.045050100646224
263 0 1	-28.3 -2.779957301161595 13.206930321182417
264 0 1	-27.6 -3.4609014687620263 13.045050100646224
265 0 1	-26.9 -2.779957301161595 13.206930321182417
266 0 1	-26.2 -3.4609014687620263 13.045050100646224
267 0 1	-25.5 -2.779957301161595 13.206930321182417
268 0 1	-24.7 -3.4609014687620263 13.045050100646224
269 0 1	-24.0 -2.779957301161595 13.206930321182417
270 0 1	-23.3 -3.4609014687620263 13.045050100646224
271 0 1	-22.6 -2.779957301161595 13.206930321182417
272 0 1	-21.9 -3.4609014687620263 13.045050100646224
273 0 1	-21.2 -2.779957301161595 13.206930321182417
274 0 1	-20.5 -3.4609014687620263 13.045050100646224
275 0 1	-19.8 -2.779957301161595 13.206930321182417
276 0 1	-19.1 -3.4609014687620263 13.045050100646224
277 0 1	-18.4 -2.779957301161595 13.206930321182417
278 0 1	-17.7 -3.4609014687620263 13.045050100646224
279 0 1	-17.0 -2.779957301161595 13.206930321182417
280 0 1	-16.3 -3.4609014687620263 13.045050100646224
281 0 1	-15.6 -2.779957301161595 13.206930321182417
282 0 1	-14.8 -3.4609014687620263 13.045050100646224
283 0 1	-14.1 -2.779957301161595 13.206930321182417
284 0 1	-13.4 -3.4609014687620263 13.045050100646224
285 0 1	-12.7 -2.779957301161595 13.206930321182417
286 0 1	-12.0 -3.4609014687620263 13.045050100646224
287 0 1	-11.3 -2.779957301161595 13.206930321182417
288 0 1	-10.6 -3.4609014687620263 13.045050100646224
289 0 1	-9.9 -2.779957301161595 13.206930321182417
290 0 1	-9.19 -3.4609014687620263 13.045050100646224
291 0 1	-8.49 -2.779957301161595 13.206930321182417
292 0 1	-7.78 -3.4609014687620263 13.045050100646224
293 0 1	-7.07 -2.779957301161595 13.206930321182417
294 0 1	-6.36 -3.4609014687620263 13.045050100646224
295 0 1	-5.66 -2.779957301161595 13.206930321182417
296 0 1	-4.95 -3.4609014687620263 13.045050100646224
297 0 1	-4.24 -2.779957301161595 13.206930321182417
298 0 1	-3.54 -3.4609014687620263 13.045050100646224
299 0 1	-2.83 -2.779957301161595 13.206930321182417
300 0 1	-2.12 -3.4609014687620263 13.045050100646224
301 0 1	-1.41 -2.779957301161595 13.206930321182417
302 0 1	-0.707 -3.4609014687620263 13.045050100646224
303 0 1	0.0 -2.779957301161595 13.206930321182417
304 0 1	0.707 -3.4609014687620263 13.045050100646224
305 0 1	1.41 -2.779957301161595 13.206930321182417
306 0 1	2.12 -3.4609014687620263 13.045050100646224
307 0 1	2.83 -2.779957301161595 13.206930321182417
308 0 1	3.54 -3.4609014687620263 13.045050100646224
309 0 1	4.24 -2.779957301161595 13.206930321182417
310 0 1	4.95 -3.4609014687620263 13.045050100646224
311 0 1	5.66 -2.779957301161595 13.206930321182417
312 0 1	6.36 -3.4609014687620263 13.045050100646224
313 0 1	7.07 -2.779957301161595 13.206930321182417
314 0 1	7.78 -3.4609014687620263 13.045050100646224
315 0 1	8.49 -2.779957301161595 13.206930321182417
316 0 1	9.19 -3.4609014687620263 13.045050100646224
317 0 1	9.9 -2.779957301161595 13.206930321182417
318 0 1	10.6 -3.4609014687620263 13.045050100646224
319 0 1	11.3 -2.779957301161595 13.206930321182417
320 0 1	12.0 -3.4609014687620263 13.045050100646224
321 0 1	12.7 -2.779957301161595 13.206930321182417
322 0 1	13.4 -3.4609014687620263 13.045050100646224
323 0 1	14.1 -2.779957301161595 13.206930321182417
324 0 1	14.8 -3.4609014687620263 13.045050100646224
325 0 1	15.6 -2.779957301161595 13.206930321182417
326 0 1	16.3 -3.4609014687620263 13.045050100646224
327 0 1	17.0 -2.779957301161595 13.206930321182417
328 0 1	17.7 -3.4609014687620263 13.045050100646224
329 0 1	18.4 -2.779957301161595 13.206930321182417
330 0 1	19.1 -3.4609014687620263 13.045050100646224
331 0 1	19.8 -2.779957301161595 13.206930321182417
332 0 1	20.5 -3.4609014687620263 13.045050100646224
333 0 1	21.2 -2.779957301161595 13.206930321182417
334 0 1	21.9 -3.4609014687620263 13.045050100646224
335 0 1	22.6 -2.779957301161595 13.206930321182417
336 0 1	23.3 -3.4609014687620263 13.045050100646224
337 0 1	24.0 -2.779957301161595 13.206930321182417
338 0 1	24.7 -3.4609014687620263 13.045050100646224
339 0 1	25.5 -2.779957301161595 13.206930321182417
340 0 1	26.2 -3.4609014687620263 13.045050100646224
341 0 1	26.9 -2.779957301161595 13.206930321182417
342 0 1	27.6 -3.4609014687620263 13.045050100646224
343 0 1	28.3 -2.779957301161595 13.206930321182417
344 0 1	29.0 -3.4609014687620263 13.045050100646224
345 0 1	29.7 -2.779957301161595 13.206930321182417
346 0 1	30.4 -3.4609014687620263 13.045050100646224
347 0 1	31.1 -2.779957301161595 13.206930321182417
348 0 1	31.8 -3.4609014687620263 13.045050100646224
349 0 1	32.5 -2.779957301161595 13.206930321182417
350 0 1	33.2 -3.4609014687620263 13.045050100646224
351 0 1	33.9 -2.779957301161595 13.206930321182417
352 0 1	34.6 -3.4609014687620263 13.045050100646224
353 0 1	35.4 -2.779957301161595 13.206930321182417
354 0 1	36.1 -3.4609014687620263 13.045050100646224
355 0 1	36.8 -2.779957301161595 13.206930321182417
356 0 1	37.5 -3.4609014687620263 13.045050100646224
357 0 1	38.2 -2.779957301161595 13.206930321182417
358 0 1	38.9 -3.4609014687620263 13.045050100646224
359 0 1	39.6 -2.779957301161595 13.206930321182417
360 0 1	40.3 -3.4609014687620263 13.045050100646224
361 0 1	41.0 -2.779957301161595 13.206930321182417
362 0 1	41.7 -3.4609014687620263 13.045050100646224
363 0 1	42.4 -2.779957301161595 13.206930321182417
364 0 1	-42.4 -4.132537644643514 12.848085605274173
365 0 1	-41.7 -4.793059483257197 12.616566565227142
366 0 1	-41.0 -4.132537644643514 12.848085605274173
367 0 1	-40.3 -4.793059483257197 12.616566565227142
368 0 1	-39.6 -4.132537644643514 12.848085605274173
369 0 1	-38.9 -4.793059483257197 12.616566565227142
370 0 1	-38.2 -4.132537644643514 12.848085605274173
371 0 1	-37.5 -4.793059483257197 12.616566565227142
372 0 1	-36.8 -4.132537644643514 12.848085605274173
373 0 1	-36.1 -4.793059483257197 12.616566565227142
374 0 1	-35.4 -4.132537644643514 12.848085605274173
375 0 1	-34.6 -4.793059483257197 12.616566565227142
376 0 1	-33.9 -4.132537644643514 12.848085605274173
377 0 1	-33.2 -4.793059483257197 12.616566565227142
378 0 1	-32.5 -4.132537644643514 12.848085605274173
379 0 1	-31.8 -4.793059483257197 12.616566565227142
380 0 1	-31.1 -4.132537644643514 12.848085605274173
381 0 1	-30.4 -4.793059483257197 12.616566565227142
382 0 1	-29.7 -4.132537644643514 12.848085605274173
383 0 1	-29.0 -4.793059483257197 12.616566565227142
384 0 1	-28.3 -4.132537644643514 12.848085605274173
385 0 1	-27.6 -4.793059483257197 12.616566565227142
386 0 1	-26.9 -4.132537644643514 12.848085605274173
387 0 1	-26.2 -4.793059483257197 12.616566565227142
388 0 1	-25.5 -4.132537644643514 12.848085605274173
389 0 1	-24.7 -4.793059483257197 12.616566565227142
390 0 1	-24.0 -4.132537644643514 12.848085605274173
391 0 1	-23.3 -4.793059483257197 12.616566565227142
392 0 1	-22.6 -4.132537644643514 12.848085605274173
393 0 1	-21.9 -4.793059483257197 12.616566565227142
394 0 1	-21.2 -4.132537644643514 12.848085605274173
395 0 1	-20.5 -4.793059483257197 12.616566565227142
396 0 1	-19.8 -4.132537644643514 12.848085605274173
397 0 1	-19.1 -4.793059483257197 12.616566565227142
398 0 1	-18.4 -4.132537644643514 12.848085605274173
399 0 1	-17.7 -4.793059483257197 12.616566565227142
400 0 1	-17.0 -4.132537644643514 12.848085605274173
401 0 1	-16.3 -4.793059483257197 12.616566565227142
402 0 1	-15.6 -4.132537644643514 12.848085605274173
403 0 1	-14.8 -4.793059483257197 12.616566565227142
404 0 1	-14.1 -4.132537644643514 12.848085605274173
405 0 1	-13.4 -4.793059483257197 12.616566565227142
406 0 1	-12.7 -4.132537644643514 12.848085605274173
407 0 1	-12.0 -4.793059483257197 12.616566565227142
408 0 1	-11.3 -4.132537644643514 12.848085605274173
409 0 1	-10.6 -4.793059483257197 12.616566565227142
410 0 1	-9.9 -4.132537644643514 12.848085605274173
411 0 1	-9.19 -4.793059483257197 12.616566565227142
412 0 1	-8.49 -4.132537644643514 12.848085605274173
413 0 1	-7.78 -4.793059483257197 12.616566565227142
414 0 1	-7.07 -4.132537644643514 12.848085605274173
415 0 1	-6.36 -4.793059483257197 12.616566565227142
416 0 1	-5.66 -4.132537644643514 12.848085605274173
417 0 1	-4.95 -4.793059483257197 12.616566565227142
418 0 1	-4.24 -4.132537644643514 12.848085605274173
419 0 1	-3.54 -4.793059483257197 12.616566565227142
420 0 1	-2.83 -4.132537644643514 12.848085605274173
421 0 1	-2.12 -4.793059483257197 12.616566565227142
422 0 1	-1.41 -4.132537644643514 12.848085605274173
423 0 1	-0.707 -4.793059483257197 12.616566565227142
424 0 1	0.0 -4.132537644643514 12.848085605274173
425 0 1	0.707 -4.793059483257197 12.616566565227142
426 0 1	1.41 -4.132537644643514 12.848085605274173
427 0 1	2.12 -4.793059483257197 12.616566565227142
428 0 1	2.83 -4.132537644643514 12.848085605274173
429 0 1	3.54 -4.793059483257197 12.616566565227142
430 0 1	4.24 -4.132537644643514 12.848085605274173
431 0 1	4.95 -4.793059483257197 12.616566565227142
432 0 1	5.66 -4.132537644643514 12.848085605274173
433 0 1	6.36 -4.793059483257197 12.616566565227142
434 0 1	7.07 -4.132537644643514 12.848085605274173
435 0 1	7.78 -4.793059483257197 12.616566565227142
436 0 1	8.49 -4.132537644643514 12.848085605274173
437 0 1	9.19 -4.793059483257197 12.616566565227142
438 0 1	9.9 -4.132537644643514 12.848085605274173
439 0 1	10.6 -4.793059483257197 12.616566565227142
440 0 1	11.3 -4.132537644643514 12.848085605274173
441 0 1	12.0 -4.793059483257197 12.616566565227142
442 0 1	12.7 -4.132537644643514 12.848085605274173
443 0 1	13.4 -4.793059483257197 12.616566565227142
444 0 1	14.1 -4.132537644643514 12.848085605274173
445 0 1	14.8 -4.793059483257197 12.616566565227142
446 0 1	15.6 -4.132537644643514 12.848085605274173
447 0 1	16.3 -4.793059483257197 12.616566565227142
448 0 1	17.0 -4.132537644643514 12.848085605274173
449 0 1	17.7 -4.793059483257197 12.616566565227142
450 0 1	18.4 -4.132537644643514 12.848085605274173
451 0 1	19.1 -4.793059483257197 12.616566565227142
452 0 1	19.8 -4.132537644643514 12.848085605274173
453 0 1	20.5 -4.793059483257197 12.616566565227142
454 0 1	21.2 -4.132537644643514 12.848085605274173
455 0 1	21.9 -4.793059483257197 12.616566565227142
456 0 1	22.6 -4.132537644643514 12.848085605274173
457 0 1	23.3 -4.793059483257197 12.616566565227142
458 0 1	24.0 -4.132537644643514 12.848085605274173
459 0 1	24.7 -4.793059483257197 12.616566565227142
460 0 1	25.5 -4.132537644643514 12.848085605274173
461 0 1	26.2 -4.793059483257197 12.616566565227142
462 0 1	26.9 -4.132537644643514 12.848085605274173
463 0 1	27.6 -4.793059483257197 12.616566565227142
464 0 1	28.3 -4.132537644643514 12.848085605274173
465 0 1	29.0 -4.793059483257197 12.616566565227142
466 0 1	29.7 -4.132537644643514 12.848085605274173
467 0 1	30.4 -4.793059483257197 12.616566565227142
468 0 1	31.1 -4.132537644643514 12.848085605274173
469 0 1	31.8 -4.793059483257197 12.616566565227142
470 0 1	32.5 -4.132537644643514 12.848085605274173
471 0 1	33.2 -4.793059483257197 12.616566565227142
472 0 1	33.9 -4.132537644643514 12.848085605274173
473 0 1	34.6 -4.793059483257197 12.616566565227142
474 0 1	35.4 -4.132537644643514 12.848085605274173
475 0 1	36.1 -4.793059483257197 12.616566565227142
476 0 1	36.8 -4.132537644643514 12.848085605274173
477 0 1	37.5 -4.793059483257197 12.616566565227142
478 0 1	38.2 -4.132537644643514 12.848085605274173
479 0 1	38.9 -4.793059483257197 12.616566565227142
480 0 1	39.6 -4.132537644643514 12.848085605274173
481 0 1	40.3 -4.793059483257197 12.616566565227142
482 0 1	41.0 -4.132537644643514 12.848085605274173
483 0 1	41.7 -4.793059483257197 12.616566565227142
484 0 1	42.4 -4.132537644643514 12.848085605274173
485 0 1	-42.4 -5.440690530734176 12.351115644087729
486 0 1	-41.7 -6.073689002605499 12.05244676422502
487 0 1	-41.0 -5.440690530734176 12.351115644087729
488 0 1	-40.3 -6.073689002605499 12.05244676422502
489 0 1	-39.6 -5.440690530734176 12.351115644087729
490 0 1	-38.9 -6.073689002605499 12.05244676422502
491 0 1	-38.2 -5.440690530734176 12.351115644087729
492 0 1	-37.5 -6.073689002605499 12.05244676422502
493 0 1	-36.8 -5.440690530734176 12.351115644087729
494 0 1	-36.1 -6.073689002605499 12.05244676422502
495 0 1	-35.4 -5.440690530734176 12.351115644087729
496 0 1	-34.6 -6.073689002605499 12.05244676422502
497 0 1	-33.9 -5.440690530734176 12.351115644087729
498 0 1	-33.2 -6.073689002605499 12.05244676422502
499 0 1	-32.5 -5.440690530734176 12.351115644087729
500 0 1	-31.8 -6.073689002605499 12.05244676422502
501 0 1	-31.1 -5.440690530734176 12.351115644087729
502 0 1	-30.4 -6.073689002605499 12.05244676422502
503 0 1	-29.7 -5.440690530734176 12.351115644087729
504 0 1	-29.0 -6.073689002605499 12.05244676422502
505 0 1	-28.3 -5.440690530734176 12.351115644087729
506 0 1	-27.6 -6.073689002605499 12.05244676422502
507 0 1	-26.9 -5.440690530734176 12.351115644087729
508 0 1	-26.2 -6.073689002605499 12.05244676422502
509 0 1	-25.5 -5.440690530734176 12.351115644087729
510 0 1	-24.7 -6.073689002605499 12.05244676422502
511 0 1	-24.0 -5.440690530734176 12.351115644087729
512 0 1	-23.3 -6.073689002605499 12.05244676422502
513 0 1	-22.6 -5.440690530734176 12.351115644087729
514 0 1	-21.9 -6.073689002605499 12.05244676422502
515 0 1	-21.2 -5.440690530734176 12.351115644087729
516 0 1	-20.5 -6.073689002605499 12.05244676422502
517 0 1	-19.8 -5.440690530734176 12.351115644087729
518 0 1	-19.1 -6.073689002605499 12.05244676422502
519 0 1	-18.4 -5.440690530734176 12.351115644087729
520 0 1	-17.7 -6.073689002605499 12.05244676422502
521 0 1	-17.0 -5.440690530734176 12.351115644087729
522 0 1	-16.3 -6.073689002605499 12.05244676422502
523 0 1	-15.6 -5.440690530734176 12.351115644087729
524 0 1	-14.8 -6.073689002605499 12.05244676422502
525 0 1	-14.1 -5.440690530734176 12.351115644087729
526 0 1	-13.4 -6.073689002605499 12.05244676422502
527 0 1	-12.7 -5.440690530734176 12.351115644087729
528 0 1	-12.0 -6.073689002605499 12.05244676422502
529 0 1	-11.3 -5.440690530734176 12.351115644087729
530 0 1	-10.6 -6.073689002605499 12.05244676422502
531 0 1	-9.9 -5.440690530734176 12.351115644087729
532 0 1	-9.19 -6.073689002605499 12.05244676422502
533 0 1	-8.49 -5.440690530734176 12.351115644087729
534 0 1	-7.78 -6.073689002605499 12.05244676422502
535 0 1	-7.07 -5.440690530734176 12.351115644087729
536 0 1	-6.36 -6.073689002605499 12.05244676422502
537 0 1	-5.66 -5.440690530734176 12.351115644087729
538 0 1	-4.95 -6.073689002605499 12.05244676422502
539 0 1	-4.24 -5.440690530734176 12.351115644087729
540 0 1	-3.54 -6.073689002605499 12.05244676422502
541 0 1	-2.83 -5.440690530734176 12.351115644087729
542 0 1	-2.12 -6.073689002605499 12.05244676422502
543 0 1	-1.41 -5.440690530734176 12.351115644087729
544 0 1	-0.707 -6.073689002605499 12.05244676422502
545 0 1	0.0 -5.440690530734176 12.351115644087729
546 0 1	0.707 -6.073689002605499 12.05244676422502
547 0 1	1.41 -5.440690530734176 12.351115644087729
548 0 1	2.12 -6.073689002605499 12.05244676422502
549 0 1	2.83 -5.440690530734176 12.351115644087729
550 0 1	3.54 -6.073689002605499 12.05244676422502
551 0 1	4.24 -5.440690530734176 12.351115644087729
552 0 1	4.95 -6.073689002605499 12.05244676422502
553 0 1	5.66 -5.440690530734176 12.351115644087729
554 0 1	6.36 -6.073689002605499 12.05244676422502
555 0 1	7.07 -5.440690530734176 12.351115644087729
556 0 1	7.78 -6.073689002605499 12.05244676422502
557 0 1	8.49 -5.440690530734176 12.351115644087729
558 0 1	9.19 -6.073689002605499 12.05244676422502
559 0 1	9.9 -5.440690530734176 12.351115644087729
560 0 1	10.6 -6.073689002605499 12.05244676422502
561 0 1	11.3 -5.440690530734176 12.351115644087729
562 0 1	12.0 -6.073689002605499 12.05244676422502
563 0 1	12.7 -5.440690530734176 12.351115644087729
564 0 1	13.4 -6.073689002605499 12.05244676422502