LAMMPS data file via write_data, version 28 Jun 2016-ICMS, timestep = 0

20201 atoms
1 atom types

-7.0724820254278484e+001 7.0724820254278484e+001 xlo xhi
-7.0724820254278484e+001 7.0724820254278484e+001 ylo yhi
-7.0710678118654757e-001 7.0710678118654757e-001 zlo zhi

Masses

1 1

Pair Coeffs # lj/cut

1 10 1

Atoms # angle

1 0 1 -7.0710678118654755e+001 -7.0710678118654755e+001 0.0000000000000000e+000 0 0 0
2 0 1 -7.0003571337468216e+001 -7.0003571337468216e+001 0.0000000000000000e+000 0 0 0
3 0 1 -6.9296464556281663e+001 -7.0710678118654755e+001 0.0000000000000000e+000 0 0 0
4 0 1 -6.8589357775095110e+001 -7.0003571337468216e+001 0.0000000000000000e+000 0 0 0
5 0 1 -6.7882250993908571e+001 -7.0710678118654755e+001 0.0000000000000000e+000 0 0 0
6 0 1 -6.7175144212722017e+001 -7.0003571337468216e+001 0.0000000000000000e+000 0 0 0
7 0 1 -6.6468037431535478e+001 -7.0710678118654755e+001 0.0000000000000000e+000 0 0 0
8 0 1 -6.5760930650348925e+001 -7.0003571337468216e+001 0.0000000000000000e+000 0 0 0
9 0 1 -6.5053823869162372e+001 -7.0710678118654755e+001 0.0000000000000000e+000 0 0 0
10 0 1 -6.4346717087975833e+001 -7.0003571337468216e+001 0.0000000000000000e+000 0 0 0
11 0 1 -6.3639610306789280e+001 -7.0710678118654755e+001 0.0000000000000000e+000 0 0 0
12 0 1 -6.2932503525602733e+001 -7.0003571337468216e+001 0.0000000000000000e+000 0 0 0
13 0 1 -6.2225396744416187e+001 -7.0710678118654755e+001 0.0000000000000000e+000 0 0 0
14 0 1 -6.1518289963229641e+001 -7.0003571337468216e+001 0.0000000000000000e+000 0 0 0
15 0 1 -6.0811183182043088e+001 -7.0710678118654755e+001 0.0000000000000000e+000 0 0 0
16 0 1 -6.0104076400856542e+001 -7.0003571337468216e+001 0.0000000000000000e+000 0 0 0
17 0 1 -5.9396969619669996e+001 -7.0710678118654755e+001 0.0000000000000000e+000 0 0 0
18 0 1 -5.8689862838483450e+001 -7.0003571337468216e+001 0.0000000000000000e+000 0 0 0
19 0 1 -5.7982756057296903e+001 -7.0710678118654755e+001 0.0000000000000000e+000 0 0 0
20 0 1 -5.7275649276110350e+001 -7.0003571337468216e+001 0.0000000000000000e+000 0 0 0
21 0 1 -5.6568542494923804e+001 -7.0710678118654755e+001 0.0000000000000000e+000 0 0 0
22 0 1 -5.5861435713737258e+001 -7.0003571337468216e+001 0.0000000000000000e+000 0 0 0
23 0 1 -5.5154328932550712e+001 -7.0710678118654755e+001 0.0000000000000000e+000 0 0 0
24 0 1 -5.4447222151364166e+001 -7.0003571337468216e+001 0.0000000000000000e+000 0 0 0
25 0 1 -5.3740115370177612e+001 -7.0710678118654755e+001 0.0000000000000000e+000 0 0 0
26 0 1 -5.3033008588991066e+001 -7.0003571337468216e+001 0.0000000000000000e+000 0 0 0
27 0 1 -5.2325901807804520e+001 -7.0710678118654755e+001 0.0000000000000000e+000 0 0 0
28 0 1 -5.1618795026617974e+001 -7.0003571337468216e+001 0.0000000000000000e+000 0 0 0
29 0 1 -5.0911688245431428e+001 -7.0710678118654755e+001 0.0000000000000000e+000 0 0 0
30 0 1 -5.0204581464244875e+001 -7.0003571337468216e+001 0.0000000000000000e+000 0 0 0
31 0 1 -4.9497474683058329e+001 -7.0710678118654755e+001 0.0000000000000000e+000 0 0 0
32 0 1 -4.8790367901871782e+001 -7.0003571337468216e+001 0.0000000000000000e+000 0 0 0
33 0 1 -4.8083261120685236e+001 -7.0710678118654755e+001 0.0000000000000000e+000 0 0 0
34 0 1 -4.7376154339498690e+001 -7.0003571337468216e+001 0.0000000000000000e+000 0 0 0
35 0 1 -4.6669047558312137e+001 -7.0710678118654755e+001 0.0000000000000000e+000 0 0 0
36 0 1 -4.5961940777125591e+001 -7.0003571337468216e+001 0.0000000000000000e+000 0 0 0
37 0 1 -4.5254833995939045e+001 -7.0710678118654755e+001 0.0000000000000000e+000 0 0 0
38 0 1 -4.4547727214752499e+001 -7.0003571337468216e+001 0.0000000000000000e+000 0 0 0
39 0 1 -4.3840620433565952e+001 -7.0710678118654755e+001 0.0000000000000000e+000 0 0 0
40 0 1 -4.3133513652379399e+001 -7.0003571337468216e+001 0.0000000000000000e+000 0 0 0
41 0 1 -4.2426406871192853e+001 -7.0710678118654755e+001 0.0000000000000000e+000 0 0 0
42 0 1 -4.1719300090006307e+001 -7.0003571337468216e+001 0.0000000000000000e+000 0 0 0
43 0 1 -4.1012193308819761e+001 -7.0710678118654755e+001 0.0000000000000000e+000 0 0 0
44 0 1 -4.0305086527633215e+001 -7.0003571337468216e+001 0.0000000000000000e+000 0 0 0
45 0 1 -3.9597979746446661e+001 -7.0710678118654755e+001 0.0000000000000000e+000 0 0 0
46 0 1 -3.8890872965260115e+001 -7.0003571337468216e+001 0.0000000000000000e+000 0 0 0
47 0 1 -3.8183766184073569e+001 -7.0710678118654755e+001 0.0000000000000000e+000 0 0 0
48 0 1 -3.7476659402887023e+001 -7.0003571337468216e+001 0.0000000000000000e+000 0 0 0
49 0 1 -3.6769552621700477e+001 -7.0710678118654755e+001 0.0000000000000000e+000 0 0 0
50 0 1 -3.6062445840513924e+001 -7.0003571337468216e+001 0.0000000000000000e+000 0 0 0
51 0 1 -3.5355339059327378e+001 -7.0710678118654755e+001 0.0000000000000000e+000 0 0 0
52 0 1 -3.4648232278140831e+001 -7.0003571337468216e+001 0.0000000000000000e+000 0 0 0
53 0 1 -3.3941125496954285e+001 -7.0710678118654755e+001 0.0000000000000000e+000 0 0 0
54 0 1 -3.3234018715767739e+001 -7.0003571337468216e+001 0.0000000000000000e+000 0 0 0
55 0 1 -3.2526911934581186e+001 -7.0710678118654755e+001 0.0000000000000000e+000 0 0 0
56 0 1 -3.1819805153394640e+001 -7.0003571337468216e+001 0.0000000000000000e+000 0 0 0
57 0 1 -3.1112698372208094e+001 -7.0710678118654755e+001 0.0000000000000000e+000 0 0 0
58 0 1 -3.0405591591021544e+001 -7.0003571337468216e+001 0.0000000000000000e+000 0 0 0
59 0 1 -2.9698484809834998e+001 -7.0710678118654755e+001 0.0000000000000000e+000 0 0 0
60 0 1 -2.8991378028648452e+001 -7.0003571337468216e+001 0.0000000000000000e+000 0 0 0
61 0 1 -2.8284271247461902e+001 -7.0710678118654755e+001 0.0000000000000000e+000 0 0 0
62 0 1 -2.7577164466275356e+001 -7.0003571337468216e+001 0.0000000000000000e+000 0 0 0
63 0 1 -2.6870057685088806e+001 -7.0710678118654755e+001 0.0000000000000000e+000 0 0 0
64 0 1 -2.6162950903902260e+001 -7.0003571337468216e+001 0.0000000000000000e+000 0 0 0
65 0 1 -2.5455844122715714e+001 -7.0710678118654755e+001 0.0000000000000000e+000 0 0 0
66 0 1 -2.4748737341529164e+001 -7.0003571337468216e+001 0.0000000000000000e+000 0 0 0
67 0 1 -2.4041630560342618e+001 -7.0710678118654755e+001 0.0000000000000000e+000 0 0 0
68 0 1 -2.3334523779156068e+001 -7.0003571337468216e+001 0.0000000000000000e+000 0 0 0
69 0 1 -2.2627416997969522e+001 -7.0710678118654755e+001 0.0000000000000000e+000 0 0 0
70 0 1 -2.1920310216782976e+001 -7.0003571337468216e+001 0.0000000000000000e+000 0 0 0
71 0 1 -2.1213203435596427e+001 -7.0710678118654755e+001 0.0000000000000000e+000 0 0 0
72 0 1 -2.0506096654409880e+001 -7.0003571337468216e+001 0.0000000000000000e+000 0 0 0
73 0 1 -1.9798989873223331e+001 -7.0710678118654755e+001 0.0000000000000000e+000 0 0 0
74 0 1 -1.9091883092036785e+001 -7.0003571337468216e+001 0.0000000000000000e+000 0 0 0
75 0 1 -1.8384776310850238e+001 -7.0710678118654755e+001 0.0000000000000000e+000 0 0 0
76 0 1 -1.7677669529663689e+001 -7.0003571337468216e+001 0.0000000000000000e+000 0 0 0
77 0 1 -1.6970562748477143e+001 -7.0710678118654755e+001 0.0000000000000000e+000 0 0 0
78 0 1 -1.6263455967290593e+001 -7.0003571337468216e+001 0.0000000000000000e+000 0 0 0
79 0 1 -1.5556349186104047e+001 -7.0710678118654755e+001 0.0000000000000000e+000 0 0 0
80 0 1 -1.4849242404917499e+001 -7.0003571337468216e+001 0.0000000000000000e+000 0 0 0
81 0 1 -1.4142135623730951e+001 -7.0710678118654755e+001 0.0000000000000000e+000 0 0 0
82 0 1 -1.3435028842544403e+001 -7.0003571337468216e+001 0.0000000000000000e+000 0 0 0
83 0 1 -1.2727922061357857e+001 -7.0710678118654755e+001 0.0000000000000000e+000 0 0 0
84 0 1 -1.2020815280171309e+001 -7.0003571337468216e+001 0.0000000000000000e+000 0 0 0
85 0 1 -1.1313708498984761e+001 -7.0710678118654755e+001 0.0000000000000000e+000 0 0 0
86 0 1 -1.0606601717798213e+001 -7.0003571337468216e+001 0.0000000000000000e+000 0 0 0
87 0 1 -9.8994949366116654e+000 -7.0710678118654755e+001 0.0000000000000000e+000 0 0 0
88 0 1 -9.1923881554251192e+000 -7.0003571337468216e+001 0.0000000000000000e+000 0 0 0
89 0 1 -8.4852813742385713e+000 -7.0710678118654755e+001 0.0000000000000000e+000 0 0 0
90 0 1 -7.7781745930520234e+000 -7.0003571337468216e+001 0.0000000000000000e+000 0 0 0
91 0 1 -7.0710678118654755e+000 -7.0710678118654755e+001 0.0000000000000000e+000 0 0 0
92 0 1 -6.3639610306789285e+000 -7.0003571337468216e+001 0.0000000000000000e+000 0 0 0
93 0 1 -5.6568542494923806e+000 -7.0710678118654755e+001 0.0000000000000000e+000 0 0 0
94 0 1 -4.9497474683058327e+000 -7.0003571337468216e+001 0.0000000000000000e+000 0 0 0
95 0 1 -4.2426406871192857e+000 -7.0710678118654755e+001 0.0000000000000000e+000 0 0 0
96 0 1 -3.5355339059327378e+000 -7.0003571337468216e+001 0.0000000000000000e+000 0 0 0
97 0 1 -2.8284271247461903e+000 -7.0710678118654755e+001 0.0000000000000000e+000 0 0 0
98 0 1 -2.1213203435596428e+000 -7.0003571337468216e+001 0.0000000000000000e+000 0 0 0
99 0 1 -1.4142135623730951e+000 -7.0710678118654755e+001 0.0000000000000000e+000 0 0 0
100 0 1 -7.0710678118654757e-001 -7.0003571337468216e+001 0.0000000000000000e+000 0 0 0
101 0 1 0.0000000000000000e+000 -7.0710678118654755e+001 0.0000000000000000e+000 0 0 0
102 0 1 7.0710678118654757e-001 -7.0003571337468216e+001 0.0000000000000000e+000 0 0 0
103 0 1 1.4142135623730951e+000 -7.0710678118654755e+001 0.0000000000000000e+000 0 0 0
104 0 1 2.1213203435596428e+000 -7.0003571337468216e+001 0.0000000000000000e+000 0 0 0
105 0 1 2.8284271247461903e+000 -7.0710678118654755e+001 0.0000000000000000e+000 0 0 0
106 0 1 3.5355339059327378e+000 -7.0003571337468216e+001 0.0000000000000000e+000 0 0 0
107 0 1 4.2426406871192857e+000 -7.0710678118654755e+001 0.0000000000000000e+000 0 0 0
108 0 1 4.9497474683058327e+000 -7.0003571337468216e+001 0.0000000000000000e+000 0 0 0
109 0 1 5.6568542494923806e+000 -7.0710678118654755e+001 0.0000000000000000e+000 0 0 0
110 0 1 6.3639610306789285e+000 -7.0003571337468216e+001 0.0000000000000000e+000 0 0 0
111 0 1 7.0710678118654755e+000 -7.0710678118654755e+001 0.0000000000000000e+000 0 0 0
112 0 1 7.7781745930520234e+000 -7.0003571337468216e+001 0.0000000000000000e+000 0 0 0
113 0 1 8.4852813742385713e+000 -7.0710678118654755e+001 0.0000000000000000e+000 0 0 0
114 0 1 9.1923881554251192e+000 -7.0003571337468216e+001 0.0000000000000000e+000 0 0 0
115 0 1 9.8994949366116654e+000 -7.0710678118654755e+001 0.0000000000000000e+000 0 0 0
116 0 1 1.0606601717798213e+001 -7.0003571337468216e+001 0.0000000000000000e+000 0 0 0
117 0 1 1.1313708498984761e+001 -7.0710678118654755e+001 0.0000000000000000e+000 0 0 0
118 0 1 1.2020815280171309e+001 -7.0003571337468216e+001 0.0000000000000000e+000 0 0 0
119 0 1 1.2727922061357857e+001 -7.0710678118654755e+001 0.0000000000000000e+000 0 0 0
120 0 1 1.3435028842544403e+001 -7.0003571337468216e+001 0.0000000000000000e+000 0 0 0
121 0 1 1.4142135623730951e+001 -7.0710678118654755e+001 0.0000000000000000e+000 0 0 0
122 0 1 1.4849242404917499e+001 -7.0003571337468216e+001 0.0000000000000000e+000 0 0 0
123 0 1 1.5556349186104047e+001 -7.0710678118654755e+001 0.0000000000000000e+000 0 0 0
124 0 1 1.6263455967290593e+001 -7.0003571337468216e+001 0.0000000000000000e+000 0 0 0
125 0 1 1.6970562748477143e+001 -7.0710678118654755e+001 0.0000000000000000e+000 0 0 0
126 0 1 1.7677669529663689e+001 -7.0003571337468216e+001 0.0000000000000000e+000 0 0 0
127 0 1 1.8384776310850238e+001 -7.0710678118654755e+001 0.0000000000000000e+000 0 0 0
128 0 1 1.9091883092036785e+001 -7.0003571337468216e+001 0.0000000000000000e+000 0 0 0
129 0 1 1.9798989873223331e+001 -7.0710678118654755e+001 0.0000000000000000e+000 0 0 0
130 0 1 2.0506096654409880e+001 -7.0003571337468216e+001 0.0000000000000000e+000 0 0 0
131 0 1 2.1213203435596427e+001 -7.0710678118654755e+001 0.0000000000000000e+000 0 0 0
132 0 1 2.1920310216782976e+001 -7.0003571337468216e+001 0.0000000000000000e+000 0 0 0
133 0 1 2.2627416997969522e+001 -7.0710678118654755e+001 0.0000000000000000e+000 0 0 0
134 0 1 2.3334523779156068e+001 -7.0003571337468216e+001 0.0000000000000000e+000 0 0 0
135 0 1 2.4041630560342618e+001 -7.0710678118654755e+001 0.0000000000000000e+000 0 0 0
136 0 1 2.4748737341529164e+001 -7.0003571337468216e+001 0.0000000000000000e+000 0 0 0
137 0 1 2.5455844122715714e+001 -7.0710678118654755e+001 0.0000000000000000e+000 0 0 0
138 0 1 2.6162950903902260e+001 -7.0003571337468216e+001 0.0000000000000000e+000 0 0 0
139 0 1 2.6870057685088806e+001 -7.0710678118654755e+001 0.0000000000000000e+000 0 0 0
140 0 1 2.7577164466275356e+001 -7.0003571337468216e+001 0.0000000000000000e+000 0 0 0
141 0 1 2.8284271247461902e+001 -7.0710678118654755e+001 0.0000000000000000e+000 0 0 0
142 0 1 2.8991378028648452e+001 -7.0003571337468216e+001 0.0000000000000000e+000 0 0 0
143 0 1 2.9698484809834998e+001 -7.0710678118654755e+001 0.0000000000000000e+000 0 0 0
144 0 1 3.0405591591021544e+001 -7.0003571337468216e+001 0.0000000000000000e+000 0 0 0
145 0 1 3.1112698372208094e+001 -7.0710678118654755e+001 0.0000000000000000e+000 0 0 0
146 0 1 3.1819805153394640e+001 -7.0003571337468216e+001 0.0000000000000000e+000 0 0 0
147 0 1 3.2526911934581186e+001 -7.0710678118654755e+001 0.0000000000000000e+000 0 0 0
148 0 1 3.3234018715767739e+001 -7.0003571337468216e+001 0.0000000000000000e+000 0 0 0
149 0 1 3.3941125496954285e+001 -7.0710678118654755e+001 0.0000000000000000e+000 0 0 0
150 0 1 3.4648232278140831e+001 -7.0003571337468216e+001 0.0000000000000000e+000 0 0 0
151 0 1 3.5355339059327378e+001 -7.0710678118654755e+001 0.0000000000000000e+000 0 0 0
152 0 1 3.6062445840513924e+001 -7.0003571337468216e+001 0.0000000000000000e+000 0 0 0
153 0 1 3.6769552621700477e+001 -7.0710678118654755e+001 0.0000000000000000e+000 0 0 0
154 0 1 3.7476659402887023e+001 -7.0003571337468216e+001 0.0000000000000000e+000 0 0 0
155 0 1 3.8183766184073569e+001 -7.0710678118654755e+001 0.0000000000000000e+000 0 0 0
156 0 1 3.8890872965260115e+001 -7.0003571337468216e+001 0.0000000000000000e+000 0 0 0
157 0 1 3.9597979746446661e+001 -7.0710678118654755e+001 0.0000000000000000e+000 0 0 0
158 0 1 4.0305086527633215e+001 -7.0003571337468216e+001 0.0000000000000000e+000 0 0 0
159 0 1 4.1012193308819761e+001 -7.0710678118654755e+001 0.0000000000000000e+000 0 0 0
160 0 1 4.1719300090006307e+001 -7.0003571337468216e+001 0.0000000000000000e+000 0 0 0
161 0 1 4.2426406871192853e+001 -7.0710678118654755e+001 0.0000000000000000e+000 0 0 0
162 0 1 4.3133513652379399e+001 -7.0003571337468216e+001 0.0000000000000000e+000 0 0 0
163 0 1 4.3840620433565952e+001 -7.0710678118654755e+001 0.0000000000000000e+000 0 0 0
164 0 1 4.4547727214752499e+001 -7.0003571337468216e+001 0.0000000000000000e+000 0 0 0
165 0 1 4.5254833995939045e+001 -7.0710678118654755e+001 0.0000000000000000e+000 0 0 0
166 0 1 4.5961940777125591e+001 -7.0003571337468216e+001 0.0000000000000000e+000 0 0 0
167 0 1 4.6669047558312137e+001 -7.0710678118654755e+001 0.0000000000000000e+000 0 0 0
168 0 1 4.7376154339498690e+001 -7.0003571337468216e+001 0.0000000000000000e+000 0 0 0
169 0 1 4.8083261120685236e+001 -7.0710678118654755e+001 0.0000000000000000e+000 0 0 0
170 0 1 4.8790367901871782e+001 -7.0003571337468216e+001 0.0000000000000000e+000 0 0 0
171 0 1 4.9497474683058329e+001 -7.0710678118654755e+001 0.0000000000000000e+000 0 0 0
172 0 1 5.0204581464244875e+001 -7.0003571337468216e+001 0.0000000000000000e+000 0 0 0
173 0 1 5.0911688245431428e+001 -7.0710678118654755e+001 0.0000000000000000e+000 0 0 0
174 0 1 5.1618795026617974e+001 -7.0003571337468216e+001 0.0000000000000000e+000 0 0 0
175 0 1 5.2325901807804520e+001 -7.0710678118654755e+001 0.0000000000000000e+000 0 0 0
176 0 1 5.3033008588991066e+001 -7.0003571337468216e+001 0.0000000000000000e+000 0 0 0
177 0 1 5.3740115370177612e+001 -7.0710678118654755e+001 0.0000000000000000e+000 0 0 0
178 0 1 5.4447222151364166e+001 -7.0003571337468216e+001 0.0000000000000000e+000 0 0 0
179 0 1 5.5154328932550712e+001 -7.0710678118654755e+001 0.0000000000000000e+000 0 0 0
180 0 1 5.5861435713737258e+001 -7.0003571337468216e+001 0.0000000000000000e+000 0 0 0
181 0 1 5.6568542494923804e+001 -7.0710678118654755e+001 0.0000000000000000e+000 0 0 0
182 0 1 5.7275649276110350e+001 -7.0003571337468216e+001 0.0000000000000000e+000 0 0 0
183 0 1 5.7982756057296903e+001 -7.0710678118654755e+001 0.0000000000000000e+000 0 0 0
184 0 1 5.8689862838483450e+001 -7.0003571337468216e+001 0.0000000000000000e+000 0 0 0
185 0 1 5.9396969619669996e+001 -7.0710678118654755e+001 0.0000000000000000e+000 0 0 0
186 0 1 6.0104076400856542e+001 -7.0003571337468216e+001 0.0000000000000000e+000 0 0 0
187 0 1 6.0811183182043088e+001 -7.0710678118654755e+001 0.0000000000000000e+000 0 0 0
188 0 1 6.1518289963229641e+001 -7.0003571337468216e+001 0.0000000000000000e+000 0 0 0
189 0 1 6.2225396744416187e+001 -7.0710678118654755e+001 0.0000000000000000e+000 0 0 0
190 0 1 6.2932503525602733e+001 -7.0003571337468216e+001 0.0000000000000000e+000 0 0 0
191 0 1 6.3639610306789280e+001 -7.0710678118654755e+001 0.0000000000000000e+000 0 0 0
192 0 1 6.4346717087975833e+001 -7.0003571337468216e+001 0.0000000000000000e+000 0 0 0
193 0 1 6.5053823869162372e+001 -7.0710678118654755e+001 0.0000000000000000e+000 0 0 0
194 0 1 6.5760930650348925e+001 -7.0003571337468216e+001 0.0000000000000000e+000 0 0 0
195 0 1 6.6468037431535478e+001 -7.0710678118654755e+001 0.0000000000000000e+000 0 0 0
196 0 1 6.7175144212722017e+001 -7.0003571337468216e+001 0.0000000000000000e+000 0 0 0
197 0 1 6.7882250993908571e+001 -7.0710678118654755e+001 0.0000000000000000e+000 0 0 0
198 0 1 6.8589357775095110e+001 -7.0003571337468216e+001 0.0000000000000000e+000 0 0 0
199 0 1 6.9296464556281663e+001 -7.0710678118654755e+001 0.0000000000000000e+000 0 0 0
200 0 1 7.0003571337468216e+001 -7.0003571337468216e+001 0.0000000000000000e+000 0 0 0
201 0 1 7.0710678118654755e+001 -7.0710678118654755e+001 0.0000000000000000e+000 0 0 0
202 0 1 -7.0710678118654755e+001 -6.9296464556281663e+001 0.0000000000000000e+000 0 0 0
203 0 1 -7.0003571337468216e+001 -6.8589357775095110e+001 0.0000000000000000e+000 0 0 0
204 0 1 -6.9296464556281663e+001 -6.9296464556281663e+001 0.0000000000000000e+000 0 0 0
205 0 1 -6.8589357775095110e+001 -6.8589357775095110e+001 0.0000000000000000e+000 0 0 0
206 0 1 -6.7882250993908571e+001 -6.9296464556281663e+001 0.0000000000000000e+000 0 0 0
207 0 1 -6.7175144212722017e+001 -6.8589357775095110e+001 0.0000000000000000e+000 0 0 0
208 0 1 -6.6468037431535478e+001 -6.9296464556281663e+001 0.0000000000000000e+000 0 0 0
209 0 1 -6.5760930650348925e+001 -6.8589357775095110e+001 0.0000000000000000e+000 0 0 0
210 0 1 -6.5053823869162372e+001 -6.9296464556281663e+001 0.0000000000000000e+000 0 0 0
211 0 1 -6.4346717087975833e+001 -6.8589357775095110e+001 0.0000000000000000e+000 0 0 0
212 0 1 -6.3639610306789280e+001 -6.9296464556281663e+001 0.0000000000000000e+000 0 0 0
213 0 1 -6.2932503525602733e+001 -6.8589357775095110e+001 0.0000000000000000e+000 0 0 0
214 0 1 -6.2225396744416187e+001 -6.9296464556281663e+001 0.0000000000000000e+000 0 0 0
215 0 1 -6.1518289963229641e+001 -6.8589357775095110e+001 0.0000000000000000e+000 0 0 0
216 0 1 -6.0811183182043088e+001 -6.9296464556281663e+001 0.0000000000000000e+000 0 0 0
217 0 1 -6.0104076400856542e+001 -6.8589357775095110e+001 0.0000000000000000e+000 0 0 0
218 0 1 -5.9396969619669996e+001 -6.9296464556281663e+001 0.0000000000000000e+000 0 0 0
219 0 1 -5.8689862838483450e+001 -6.8589357775095110e+001 0.0000000000000000e+000 0 0 0
220 0 1 -5.7982756057296903e+001 -6.9296464556281663e+001 0.0000000000000000e+000 0 0 0
221 0 1 -5.7275649276110350e+001 -6.8589357775095110e+001 0.0000000000000000e+000 0 0 0
222 0 1 -5.6568542494923804e+001 -6.9296464556281663e+001 0.0000000000000000e+000 0 0 0
223 0 1 -5.5861435713737258e+001 -6.8589357775095110e+001 0.0000000000000000e+000 0 0 0
224 0 1 -5.5154328932550712e+001 -6.9296464556281663e+001 0.0000000000000000e+000 0 0 0
225 0 1 -5.4447222151364166e+001 -6.8589357775095110e+001 0.0000000000000000e+000 0 0 0
226 0 1 -5.3740115370177612e+001 -6.9296464556281663e+001 0.0000000000000000e+000 0 0 0
227 0 1 -5.3033008588991066e+001 -6.8589357775095110e+001 0.0000000000000000e+000 0 0 0
228 0 1 -5.2325901807804520e+001 -6.9296464556281663e+001 0.0000000000000000e+000 0 0 0
229 0 1 -5.1618795026617974e+001 -6.8589357775095110e+001 0.0000000000000000e+000 0 0 0
230 0 1 -5.0911688245431428e+001 -6.9296464556281663e+001 0.0000000000000000e+000 0 0 0
231 0 1 -5.0204581464244875e+001 -6.8589357775095110e+001 0.0000000000000000e+000 0 0 0
232 0 1 -4.9497474683058329e+001 -6.9296464556281663e+001 0.0000000000000000e+000 0 0 0
233 0 1 -4.8790367901871782e+001 -6.8589357775095110e+001 0.0000000000000000e+000 0 0 0
234 0 1 -4.8083261120685236e+001 -6.9296464556281663e+001 0.0000000000000000e+000 0 0 0
235 0 1 -4.7376154339498690e+001 -6.8589357775095110e+001 0.0000000000000000e+000 0 0 0
236 0 1 -4.6669047558312137e+001 -6.9296464556281663e+001 0.0000000000000000e+000 0 0 0
237 0 1 -4.5961940777125591e+001 -6.8589357775095110e+001 0.0000000000000000e+000 0 0 0
238 0 1 -4.5254833995939045e+001 -6.9296464556281663e+001 0.0000000000000000e+000 0 0 0
239 0 1 -4.4547727214752499e+001 -6.8589357775095110e+001 0.0000000000000000e+000 0 0 0
240 0 1 -4.3840620433565952e+001 -6.9296464556281663e+001 0.0000000000000000e+000 0 0 0
241 0 1 -4.3133513652379399e+001 -6.8589357775095110e+001 0.0000000000000000e+000 0 0 0
242 0 1 -4.2426406871192853e+001 -6.9296464556281663e+001 0.0000000000000000e+000 0 0 0
243 0 1 -4.1719300090006307e+001 -6.8589357775095110e+001 0.0000000000000000e+000 0 0 0
244 0 1 -4.1012193308819761e+001 -6.9296464556281663e+001 0.0000000000000000e+000 0 0 0
245 0 1 -4.0305086527633215e+001 -6.8589357775095110e+001 0.0000000000000000e+000 0 0 0
246 0 1 -3.9597979746446661e+001 -6.9296464556281663e+001 0.0000000000000000e+000 0 0 0
247 0 1 -3.8890872965260115e+001 -6.8589357775095110e+001 0.0000000000000000e+000 0 0 0
248 0 1 -3.8183766184073569e+001 -6.9296464556281663e+001 0.0000000000000000e+000 0 0 0
249 0 1 -3.7476659402887023e+001 -6.8589357775095110e+001 0.0000000000000000e+000 0 0 0
250 0 1 -3.6769552621700477e+001 -6.9296464556281663e+001 0.0000000000000000e+000 0 0 0
251 0 1 -3.6062445840513924e+001 -6.8589357775095110e+001 0.0000000000000000e+000 0 0 0
252 0 1 -3.5355339059327378e+001 -6.9296464556281663e+001 0.0000000000000000e+000 0 0 0
253 0 1 -3.4648232278140831e+001 -6.8589357775095110e+001 0.0000000000000000e+000 0 0 0
254 0 1 -3.3941125496954285e+001 -6.9296464556281663e+001 0.0000000000000000e+000 0 0 0
255 0 1 -3.3234018715767739e+001 -6.8589357775095110e+001 0.0000000000000000e+000 0 0 0
256 0 1 -3.2526911934581186e+001 -6.9296464556281663e+001 0.0000000000000000e+000 0 0 0
257 0 1 -3.1819805153394640e+001 -6.8589357775095110e+001 0.0000000000000000e+000 0 0 0
258 0 1 -3.1112698372208094e+001 -6.9296464556281663e+001 0.0000000000000000e+000 0 0 0
259 0 1 -3.0405591591021544e+001 -6.8589357775095110e+001 0.0000000000000000e+000 0 0 0
260 0 1 -2.9698484809834998e+001 -6.9296464556281663e+001 0.0000000000000000e+000 0 0 0
261 0 1 -2.8991378028648452e+001 -6.8589357775095110e+001 0.0000000000000000e+000 0 0 0
262 0 1 -2.8284271247461902e+001 -6.9296464556281663e+001 0.0000000000000000e+000 0 0 0
263 0 1 -2.7577164466275356e+001 -6.8589357775095110e+001 0.0000000000000000e+000 0 0 0
264 0 1 -2.6870057685088806e+001 -6.9296464556281663e+001 0.0000000000000000e+000 0 0 0
265 0 1 -2.6162950903902260e+001 -6.8589357775095110e+001 0.0000000000000000e+000 0 0 0
266 0 1 -2.5455844122715714e+001 -6.9296464556281663e+001 0.0000000000000000e+000 0 0 0
267 0 1 -2.4748737341529164e+001 -6.8589357775095110e+001 0.0000000000000000e+000 0 0 0
268 0 1 -2.4041630560342618e+001 -6.9296464556281663e+001 0.0000000000000000e+000 0 0 0
269 0 1 -2.3334523779156068e+001 -6.8589357775095110e+001 0.0000000000000000e+000 0 0 0
270 0 1 -2.2627416997969522e+001 -6.9296464556281663e+001 0.0000000000000000e+000 0 0 0
271 0 1 -2.1920310216782976e+001 -6.8589357775095110e+001 0.0000000000000000e+000 0 0 0
272 0 1 -2.1213203435596427e+001 -6.9296464556281663e+001 0.0000000000000000e+000 0 0 0
273 0 1 -2.0506096654409880e+001 -6.8589357775095110e+001 0.0000000000000000e+000 0 0 0
274 0 1 -1.9798989873223331e+001 -6.9296464556281663e+001 0.0000000000000000e+000 0 0 0
275 0 1 -1.9091883092036785e+001 -6.8589357775095110e+001 0.0000000000000000e+000 0 0 0
276 0 1 -1.8384776310850238e+001 -6.9296464556281663e+001 0.0000000000000000e+000 0 0 0
277 0 1 -1.7677669529663689e+001 -6.8589357775095110e+001 0.0000000000000000e+000 0 0 0
278 0 1 -1.6970562748477143e+001 -6.9296464556281663e+001 0.0000000000000000e+000 0 0 0
279 0 1 -1.6263455967290593e+001 -6.8589357775095110e+001 0.0000000000000000e+000 0 0 0
280 0 1 -1.5556349186104047e+001 -6.9296464556281663e+001 0.0000000000000000e+000 0 0 0
281 0 1 -1.4849242404917499e+001 -6.8589357775095110e+001 0.0000000000000000e+000 0 0 0
282 0 1 -1.4142135623730951e+001 -6.9296464556281663e+001 0.0000000000000000e+000 0 0 0
283 0 1 -1.3435028842544403e+001 -6.8589357775095110e+001 0.0000000000000000e+000 0 0 0
284 0 1 -1.2727922061357857e+001 -6.9296464556281663e+001 0.0000000000000000e+000 0 0 0
285 0 1 -1.2020815280171309e+001 -6.8589357775095110e+001 0.0000000000000000e+000 0 0 0
286 0 1 -1.1313708498984761e+001 -6.9296464556281663e+001 0.0000000000000000e+000 0 0 0
287 0 1 -1.0606601717798213e+001 -6.8589357775095110e+001 0.0000000000000000e+000 0 0 0
288 0 1 -9.8994949366116654e+000 -6.9296464556281663e+001 0.0000000000000000e+000 0 0 0
289 0 1 -9.1923881554251192e+000 -6.8589357775095110e+001 0.0000000000000000e+000 0 0 0
290 0 1 -8.4852813742385713e+000 -6.9296464556281663e+001 0.0000000000000000e+000 0 0 0
291 0 1 -7.7781745930520234e+000 -6.8589357775095110e+001 0.0000000000000000e+000 0 0 0
292 0 1 -7.0710678118654755e+000 -6.9296464556281663e+001 0.0000000000000000e+000 0 0 0
293 0 1 -6.3639610306789285e+000 -6.8589357775095110e+001 0.0000000000000000e+000 0 0 0
294 0 1 -5.6568542494923806e+000 -6.9296464556281663e+001 0.0000000000000000e+000 0 0 0
295 0 1 -4.9497474683058327e+000 -6.8589357775095110e+001 0.0000000000000000e+000 0 0 0
296 0 1 -4.2426406871192857e+000 -6.9296464556281663e+001 0.0000000000000000e+000 0 0 0
297 0 1 -3.5355339059327378e+000 -6.8589357775095110e+001 0.0000000000000000e+000 0 0 0
298 0 1 -2.8284271247461903e+000 -6.9296464556281663e+001 0.0000000000000000e+000 0 0 0
299 0 1 -2.1213203435596428e+000 -6.8589357775095110e+001 0.0000000000000000e+000 0 0 0
300 0 1 -1.4142135623730951e+000 -6.9296464556281663e+001 0.0000000000000000e+000 0 0 0
301 0 1 -7.0710678118654757e-001 -6.8589357775095110e+001 0.0000000000000000e+000 0 0 0
302 0 1 0.0000000000000000e+000 -6.9296464556281663e+001 0.0000000000000000e+000 0 0 0
303 0 1 7.0710678118654757e-001 -6.8589357775095110e+001 0.0000000000000000e+000 0 0 0
304 0 1 1.4142135623730951e+000 -6.9296464556281663e+001 0.0000000000000000e+000 0 0 0
305 0 1 2.1213203435596428e+000 -6.8589357775095110e+001 0.0000000000000000e+000 0 0 0
306 0 1 2.8284271247461903e+000 -6.9296464556281663e+001 0.0000000000000000e+000 0 0 0
307 0 1 3.5355339059327378e+000 -6.8589357775095110e+001 0.0000000000000000e+000 0 0 0
308 0 1 4.2426406871192857e+000 -6.9296464556281663e+001 0.0000000000000000e+000 0 0 0
309 0 1 4.9497474683058327e+000 -6.8589357775095110e+001 0.0000000000000000e+000 0 0 0
310 0 1 5.6568542494923806e+000 -6.9296464556281663e+001 0.0000000000000000e+000 0 0 0
311 0 1 6.3639610306789285e+000 -6.8589357775095110e+001 0.0000000000000000e+000 0 0 0
312 0 1 7.0710678118654755e+000 -6.9296464556281663e+001 0.0000000000000000e+000 0 0 0
313 0 1 7.7781745930520234e+000 -6.8589357775095110e+001 0.0000000000000000e+000 0 0 0
314 0 1 8.4852813742385713e+000 -6.9296464556281663e+001 0.0000000000000000e+000 0 0 0
315 0 1 9.1923881554251192e+000 -6.8589357775095110e+001 0.0000000000000000e+000 0 0 0
316 0 1 9.8994949366116654e+000 -6.9296464556281663e+001 0.0000000000000000e+000 0 0 0
317 0 1 1.0606601717798213e+001 -6.8589357775095110e+001 0.0000000000000000e+000 0 0 0
318 0 1 1.1313708498984761e+001 -6.9296464556281663e+001 0.0000000000000000e+000 0 0 0
319 0 1 1.2020815280171309e+001 -6.8589357775095110e+001 0.0000000000000000e+000 0 0 0
320 0 1 1.2727922061357857e+001 -6.9296464556281663e+001 0.0000000000000000e+000 0 0 0
321 0 1 1.3435028842544403e+001 -6.8589357775095110e+001 0.0000000000000000e+000 0 0 0
322 0 1 1.4142135623730951e+001 -6.9296464556281663e+001 0.0000000000000000e+000 0 0 0
323 0 1 1.4849242404917499e+001 -6.8589357775095110e+001 0.0000000000000000e+000 0 0 0
324 0 1 1.5556349186104047e+001 -6.9296464556281663e+001 0.0000000000000000e+000 0 0 0
325 0 1 1.6263455967290593e+001 -6.8589357775095110e+001 0.0000000000000000e+000 0 0 0
326 0 1 1.6970562748477143e+001 -6.9296464556281663e+001 0.0000000000000000e+000 0 0 0
327 0 1 1.7677669529663689e+001 -6.8589357775095110e+001 0.0000000000000000e+000 0 0 0
328 0 1 1.8384776310850238e+001 -6.9296464556281663e+001 0.0000000000000000e+000 0 0 0
329 0 1 1.9091883092036785e+001 -6.8589357775095110e+001 0.0000000000000000e+000 0 0 0
330 0 1 1.9798989873223331e+001 -6.9296464556281663e+001 0.0000000000000000e+000 0 0 0
331 0 1 2.0506096654409880e+001 -6.8589357775095110e+001 0.0000000000000000e+000 0 0 0
332 0 1 2.1213203435596427e+001 -6.9296464556281663e+001 0.0000000000000000e+000 0 0 0
333 0 1 2.1920310216782976e+001 -6.8589357775095110e+001 0.0000000000000000e+000 0 0 0
334 0 1 2.2627416997969522e+001 -6.9296464556281663e+001 0.0000000000000000e+000 0 0 0
335 0 1 2.3334523779156068e+001 -6.8589357775095110e+001 0.0000000000000000e+000 0 0 0